[Molden Format]
[Title]
Written by TeraChem
[Atoms] Angs
O   1   8      0.00001   -0.00134    0.00010
O   2   8     -0.00006   -0.00058    2.91328
H   3   1      0.91013    0.00068   -0.31411
H   4   1      0.05942   -0.00105    0.96842
H   5   1     -0.43161    0.76371    3.31355
H   6   1     -0.41300   -0.77374    3.31612
[GTO]
    1 0
 s    8 1.00
        11720.000000             0.000710
         1759.000000             0.005467
          400.800000             0.027823
          113.700000             0.104748
           37.030000             0.282921
           13.270000             0.448495
            5.025000             0.270817
            1.013000             0.015450
 s    8 1.00
        11720.000000            -0.000314
         1759.000000            -0.002482
          400.800000            -0.012316
          113.700000            -0.050539
           37.030000            -0.139385
           13.270000            -0.325077
            5.025000            -0.229848
            1.013000             1.095379
 s    1 1.00
            0.302300             1.000000
 p    3 1.00
           17.700000             0.062679
            3.854000             0.333537
            1.046000             0.741240
 p    1 1.00
            0.275300             1.000000
 d    1 1.00
            1.185000             1.000000
 s    1 1.00
            0.245645             1.000000
 p    1 1.00
            0.169341             1.000000
 d    1 1.00
            0.622557             1.000000
 s    1 1.00
            0.098496             1.000000
 p    1 1.00
            0.089894             1.000000
 d    1 1.00
            0.242161             1.000000
 s    1 1.00
            0.052725             1.000000
 p    1 1.00
            0.055611             1.000000
 d    1 1.00
            0.127840             1.000000
 s    1 1.00
            0.032775             1.000000
 p    1 1.00
            0.037766             1.000000
 d    1 1.00
            0.078835             1.000000
 s    1 1.00
            0.022327             1.000000
 p    1 1.00
            0.027312             1.000000
 d    1 1.00
            0.053428             1.000000

    2 0
 s    8 1.00
        11720.000000             0.000710
         1759.000000             0.005467
          400.800000             0.027823
          113.700000             0.104748
           37.030000             0.282921
           13.270000             0.448495
            5.025000             0.270817
            1.013000             0.015450
 s    8 1.00
        11720.000000            -0.000314
         1759.000000            -0.002482
          400.800000            -0.012316
          113.700000            -0.050539
           37.030000            -0.139385
           13.270000            -0.325077
            5.025000            -0.229848
            1.013000             1.095379
 s    1 1.00
            0.302300             1.000000
 p    3 1.00
           17.700000             0.062679
            3.854000             0.333537
            1.046000             0.741240
 p    1 1.00
            0.275300             1.000000
 d    1 1.00
            1.185000             1.000000
 s    1 1.00
            0.245645             1.000000
 p    1 1.00
            0.169341             1.000000
 d    1 1.00
            0.622557             1.000000
 s    1 1.00
            0.098496             1.000000
 p    1 1.00
            0.089894             1.000000
 d    1 1.00
            0.242161             1.000000
 s    1 1.00
            0.052725             1.000000
 p    1 1.00
            0.055611             1.000000
 d    1 1.00
            0.127840             1.000000
 s    1 1.00
            0.032775             1.000000
 p    1 1.00
            0.037766             1.000000
 d    1 1.00
            0.078835             1.000000
 s    1 1.00
            0.022327             1.000000
 p    1 1.00
            0.027312             1.000000
 d    1 1.00
            0.053428             1.000000

    3 0
 s    3 1.00
           13.010000             0.033499
            1.962000             0.234801
            0.444600             0.813683
 s    1 1.00
            0.122000             1.000000
 p    1 1.00
            0.727000             1.000000
 d    1 1.00
            0.622557             1.000000
 s    1 1.00
            0.098496             1.000000
 p    1 1.00
            0.430082             1.000000
 d    1 1.00
            0.242161             1.000000
 s    1 1.00
            0.052725             1.000000
 p    1 1.00
            0.169341             1.000000
 d    1 1.00
            0.127840             1.000000
 s    1 1.00
            0.032775             1.000000
 p    1 1.00
            0.089894             1.000000
 d    1 1.00
            0.078835             1.000000
 s    1 1.00
            0.022327             1.000000
 p    1 1.00
            0.055611             1.000000
 d    1 1.00
            0.053428             1.000000
 s    1 1.00
            0.016182             1.000000
 p    1 1.00
            0.037766             1.000000

    4 0
 s    3 1.00
           13.010000             0.033499
            1.962000             0.234801
            0.444600             0.813683
 s    1 1.00
            0.122000             1.000000
 p    1 1.00
            0.727000             1.000000
 d    1 1.00
            0.622557             1.000000
 s    1 1.00
            0.098496             1.000000
 p    1 1.00
            0.430082             1.000000
 d    1 1.00
            0.242161             1.000000
 s    1 1.00
            0.052725             1.000000
 p    1 1.00
            0.169341             1.000000
 d    1 1.00
            0.127840             1.000000
 s    1 1.00
            0.032775             1.000000
 p    1 1.00
            0.089894             1.000000
 d    1 1.00
            0.078835             1.000000
 s    1 1.00
            0.022327             1.000000
 p    1 1.00
            0.055611             1.000000
 d    1 1.00
            0.053428             1.000000
 s    1 1.00
            0.016182             1.000000
 p    1 1.00
            0.037766             1.000000

    5 0
 s    3 1.00
           13.010000             0.033499
            1.962000             0.234801
            0.444600             0.813683
 s    1 1.00
            0.122000             1.000000
 p    1 1.00
            0.727000             1.000000
 d    1 1.00
            0.622557             1.000000
 s    1 1.00
            0.098496             1.000000
 p    1 1.00
            0.430082             1.000000
 d    1 1.00
            0.242161             1.000000
 s    1 1.00
            0.052725             1.000000
 p    1 1.00
            0.169341             1.000000
 d    1 1.00
            0.127840             1.000000
 s    1 1.00
            0.032775             1.000000
 p    1 1.00
            0.089894             1.000000
 d    1 1.00
            0.078835             1.000000
 s    1 1.00
            0.022327             1.000000
 p    1 1.00
            0.055611             1.000000
 d    1 1.00
            0.053428             1.000000
 s    1 1.00
            0.016182             1.000000
 p    1 1.00
            0.037766             1.000000

    6 0
 s    3 1.00
           13.010000             0.033499
            1.962000             0.234801
            0.444600             0.813683
 s    1 1.00
            0.122000             1.000000
 p    1 1.00
            0.727000             1.000000
 d    1 1.00
            0.622557             1.000000
 s    1 1.00
            0.098496             1.000000
 p    1 1.00
            0.430082             1.000000
 d    1 1.00
            0.242161             1.000000
 s    1 1.00
            0.052725             1.000000
 p    1 1.00
            0.169341             1.000000
 d    1 1.00
            0.127840             1.000000
 s    1 1.00
            0.032775             1.000000
 p    1 1.00
            0.089894             1.000000
 d    1 1.00
            0.078835             1.000000
 s    1 1.00
            0.022327             1.000000
 p    1 1.00
            0.055611             1.000000
 d    1 1.00
            0.053428             1.000000
 s    1 1.00
            0.016182             1.000000
 p    1 1.00
            0.037766             1.000000

[MO]
 Ene=   -20.6051
 Spin= Alpha
 Occup= 2.0
    1    0.00006
    2    0.00001
    3    0.00026
    4    0.00001
    5    0.00000
    6    0.00004
    7   -0.00029
    8   -0.00000
    9    0.00115
   10    0.00001
   11    0.00000
   12    0.00002
   13    0.00000
   14    0.00001
   15    0.00000
   16   -0.00014
   17    0.00153
   18    0.00001
   19   -0.00227
   20   -0.00003
   21   -0.00002
   22    0.00004
   23   -0.00000
   24   -0.00003
   25   -0.00000
   26   -0.00005
   27    0.00197
   28   -0.00003
   29    0.00060
   30   -0.00014
   31   -0.00024
   32    0.00034
   33    0.00000
   34   -0.00013
   35   -0.00000
   36   -0.00050
   37    0.00244
   38    0.00007
   39   -0.00092
   40    0.00020
   41   -0.00010
   42   -0.00136
   43   -0.00001
   44   -0.00015
   45   -0.00000
   46   -0.00070
   47    0.00116
   48   -0.00002
   49   -0.00200
   50   -0.00144
   51   -0.00099
   52    0.00122
   53    0.00001
   54    0.00147
   55    0.00001
   56   -0.00479
   57   -0.00206
   58   -0.00000
   59    0.00011
   60   -0.00033
   61   -0.00049
   62   -0.00304
   63   -0.00001
   64   -0.00025
   65    0.00001
   66   -1.00254
   67   -0.00417
   68    0.00447
   69    0.00164
   70    0.00002
   71   -0.00149
   72   -0.00144
   73   -0.00001
   74    0.00087
   75   -0.00002
   76   -0.00027
   77   -0.00008
   78    0.00000
   79    0.00014
   80    0.00000
   81   -0.00366
   82    0.00541
   83    0.00006
   84   -0.00360
   85    0.00045
   86    0.00015
   87    0.00069
   88    0.00000
   89    0.00008
   90    0.00000
   91    0.00629
   92   -0.00974
   93   -0.00008
   94    0.00046
   95   -0.00417
   96   -0.00488
   97   -0.00573
   98    0.00001
   99   -0.00004
  100    0.00000
  101    0.00213
  102    0.00634
  103    0.00009
  104    0.00319
  105    0.00143
  106    0.00414
  107    0.00684
  108   -0.00004
  109    0.00294
  110    0.00002
  111   -0.00598
  112   -0.01538
  113   -0.00020
  114   -0.00519
  115   -0.00627
  116   -0.00546
  117   -0.01270
  118   -0.00002
  119   -0.00698
  120   -0.00005
  121    0.00860
  122    0.00012
  123   -0.00001
  124   -0.00052
  125    0.00523
  126   -0.00422
  127    0.00562
  128    0.00015
  129    0.00644
  130    0.00005
  131    0.00001
  132   -0.00001
  133   -0.00001
  134    0.00000
  135    0.00001
  136    0.00001
  137   -0.00001
  138    0.00000
  139   -0.00000
  140   -0.00001
  141    0.00000
  142    0.00005
  143    0.00002
  144   -0.00000
  145   -0.00007
  146   -0.00010
  147    0.00009
  148    0.00012
  149    0.00000
  150   -0.00001
  151   -0.00000
  152    0.00001
  153    0.00076
  154    0.00000
  155    0.00075
  156    0.00056
  157    0.00032
  158    0.00112
  159   -0.00000
  160   -0.00022
  161    0.00000
  162    0.00009
  163   -0.00065
  164    0.00003
  165    0.00036
  166   -0.00031
  167    0.00057
  168   -0.00042
  169   -0.00001
  170    0.00028
  171    0.00001
  172    0.00299
  173   -0.00071
  174   -0.00008
  175   -0.00250
  176    0.00072
  177   -0.00052
  178   -0.00080
  179    0.00002
  180   -0.00032
  181   -0.00002
  182   -0.00004
  183   -0.00205
  184   -0.00002
  185   -0.00081
  186   -0.00009
  187    0.00019
  188   -0.00001
  189    0.00000
  190   -0.00004
  191   -0.00001
  192   -0.00001
  193   -0.00017
  194   -0.00000
  195   -0.00002
  196   -0.00000
  197   -0.00031
  198    0.00010
  199    0.00000
  200    0.00048
  201    0.00010
  202    0.00020
  203    0.00078
  204   -0.00000
  205   -0.00031
  206   -0.00000
  207    0.00045
  208   -0.00023
  209    0.00000
  210   -0.00034
  211   -0.00013
  212    0.00027
  213    0.00024
  214    0.00000
  215    0.00187
  216    0.00001
  217   -0.00099
  218   -0.00355
  219   -0.00001
  220   -0.00384
  221    0.00253
  222    0.00188
  223   -0.00381
  224   -0.00001
  225   -0.00105
  226    0.00000
  227    0.00248
  228   -0.00075
  229   -0.00001
  230    0.00439
  231    0.00167
  232    0.00103
  233    0.00166
  234    0.00003
  235    0.00348
  236   -0.00003
  237   -0.00053
  238    0.00674
  239    0.00007
  240    0.00154
  241   -0.00080
  242    0.00506
  243    0.00033
  244   -0.00078
  245   -0.00033
  246   -0.00016
  247    0.00067
  248   -0.00015
  249   -0.00080
  250   -0.00043
  251    0.00076
  252    0.00327
  253    0.00043
  254   -0.00015
  255   -0.00031
  256   -0.00072
  257   -0.00270
  258   -0.00086
  259    0.00139
  260    0.00085
  261   -0.00153
  262    0.00353
  263   -0.00166
  264    0.00018
  265    0.00170
  266   -0.00258
  267    0.00210
  268   -0.00275
  269   -0.00209
  270   -0.00142
  271    0.00257
  272   -0.00432
  273    0.00331
  274   -0.00466
  275   -0.00380
  276    0.00451
  277   -0.00009
  278    0.00582
  279    0.00145
  280    0.00177
  281   -0.00198
  282    0.00268
  283    0.00043
  284    0.01163
  285    0.00123
  286   -0.00204
  287   -0.00229
  288   -0.00330
  289   -0.00034
  290   -0.00173
  291   -0.00010
  292   -0.00145
  293    0.00348
  294   -0.00156
  295    0.00145
  296   -0.00080
  297    0.00506
  298    0.00031
  299    0.00079
  300   -0.00034
  301   -0.00020
  302    0.00070
  303   -0.00015
  304    0.00078
  305   -0.00042
  306   -0.00078
  307    0.00327
  308    0.00043
  309    0.00016
  310   -0.00031
  311   -0.00066
  312   -0.00275
  313   -0.00087
  314   -0.00133
  315    0.00081
  316    0.00156
  317    0.00352
  318   -0.00166
  319   -0.00020
  320    0.00168
  321   -0.00268
  322    0.00216
  323   -0.00275
  324    0.00194
  325   -0.00137
  326   -0.00262
  327   -0.00433
  328    0.00321
  329    0.00469
  330   -0.00378
  331    0.00457
  332   -0.00017
  333    0.00579
  334   -0.00131
  335    0.00174
  336    0.00205
  337    0.00267
  338    0.00074
  339   -0.01160
  340    0.00123
  341   -0.00207
  342   -0.00227
  343   -0.00332
  344    0.00034
  345   -0.00176
  346    0.00004
  347   -0.00145
  348    0.00342
  349    0.00167
  350    0.00145
 Ene=   -20.5466
 Spin= Alpha
 Occup= 2.0
    1    1.00247
    2    0.00405
    3   -0.00323
    4    0.00190
    5    0.00000
    6    0.00115
    7   -0.00101
    8   -0.00000
    9   -0.00280
   10    0.00017
   11   -0.00017
   12    0.00033
   13    0.00000
   14   -0.00007
   15   -0.00000
   16    0.00083
   17    0.00414
   18   -0.00000
   19    0.00644
   20   -0.00034
   21   -0.00046
   22   -0.00053
   23    0.00000
   24   -0.00010
   25    0.00000
   26   -0.00269
   27   -0.00741
   28    0.00012
   29   -0.00563
   30    0.00489
   31    0.00415
   32    0.00544
   33   -0.00000
   34   -0.00082
   35   -0.00000
   36   -0.00115
   37    0.00761
   38   -0.00001
   39    0.00190
   40   -0.00207
   41   -0.00206
   42   -0.00496
   43   -0.00000
   44    0.00312
   45    0.00001
   46    0.00323
   47   -0.00174
   48   -0.00005
   49   -0.00495
   50    0.00011
   51    0.00548
   52    0.00322
   53    0.00002
   54    0.00086
   55    0.00001
   56   -0.00133
   57    0.00037
   58    0.00000
   59    0.00233
   60    0.00271
   61   -0.00352
   62   -0.00159
   63   -0.00001
   64   -0.00291
   65   -0.00000
   66    0.00003
   67   -0.00003
   68   -0.00220
   69    0.00002
   70    0.00000
   71    0.00003
   72    0.00182
   73    0.00001
   74   -0.00157
   75    0.00002
   76    0.00003
   77   -0.00014
   78   -0.00000
   79   -0.00002
   80   -0.00000
   81   -0.00207
   82   -0.00080
   83   -0.00001
   84    0.00225
   85   -0.00009
   86   -0.00023
   87    0.00011
   88    0.00000
   89    0.00013
   90    0.00000
   91    0.00054
   92   -0.00096
   93    0.00001
   94   -0.00035
   95    0.00004
   96   -0.00044
   97   -0.00041
   98    0.00001
   99    0.00020
  100   -0.00000
  101    0.00036
  102   -0.00195
  103   -0.00002
  104    0.00103
  105    0.00208
  106    0.00189
  107    0.00299
  108   -0.00001
  109   -0.00204
  110    0.00003
  111   -0.00041
  112    0.00377
  113   -0.00001
  114    0.00399
  115   -0.00046
  116    0.00039
  117   -0.00412
  118    0.00001
  119    0.00351
  120   -0.00013
  121   -0.00288
  122   -0.00050
  123   -0.00003
  124    0.00379
  125    0.00303
  126    0.00435
  127   -0.00083
  128   -0.00006
  129   -0.00244
  130    0.00010
  131    0.00080
  132   -0.00091
  133    0.00080
  134    0.00000
  135   -0.00041
  136   -0.00124
  137    0.00056
  138    0.00031
  139   -0.00000
  140    0.00074
  141    0.00000
  142   -0.00099
  143    0.00080
  144   -0.00000
  145    0.00010
  146    0.00331
  147    0.00035
  148    0.00098
  149    0.00000
  150   -0.00160
  151   -0.00000
  152   -0.00186
  153   -0.00190
  154    0.00001
  155   -0.00114
  156   -0.00079
  157    0.00335
  158    0.00177
  159   -0.00001
  160    0.00367
  161    0.00000
  162    0.00239
  163    0.00418
  164   -0.00010
  165   -0.00611
  166   -0.00165
  167   -0.00372
  168   -0.00517
  169    0.00003
  170   -0.00166
  171   -0.00001
  172    0.00213
  173   -0.01021
  174    0.00013
  175    0.00377
  176    0.00300
  177    0.00045
  178    0.00234
  179   -0.00003
  180   -0.00121
  181    0.00002
  182   -0.00036
  183   -0.00228
  184    0.00002
  185    0.00233
  186    0.00075
  187    0.00039
  188   -0.00007
  189    0.00000
  190    0.00123
  191    0.00052
  192    0.00052
  193   -0.00146
  194    0.00000
  195   -0.00012
  196   -0.00000
  197    0.00015
  198    0.00034
  199   -0.00000
  200   -0.00091
  201   -0.00044
  202   -0.00043
  203    0.00490
  204   -0.00000
  205   -0.00015
  206   -0.00000
  207   -0.00023
  208   -0.00080
  209    0.00001
  210   -0.00024
  211    0.00307
  212    0.00259
  213   -0.00544
  214    0.00000
  215   -0.00057
  216    0.00001
  217    0.00020
  218   -0.00266
  219   -0.00010
  220    0.01030
  221    0.00042
  222   -0.00077
  223   -0.00155
  224    0.00001
  225    0.00449
  226   -0.00003
  227    0.00084
  228    0.00847
  229    0.00002
  230    0.00108
  231    0.00126
  232    0.00091
  233   -0.00294
  234   -0.00002
  235   -0.00515
  236    0.00011
  237    0.00045
  238   -0.00035
  239    0.00007
  240   -0.00345
  241    0.00000
  242    0.00151
  243   -0.00001
  244    0.00006
  245   -0.00006
  246    0.00001
  247    0.00006
  248    0.00000
  249   -0.00002
  250   -0.00003
  251    0.00004
  252    0.00089
  253    0.00025
  254   -0.00069
  255   -0.00014
  256   -0.00056
  257   -0.00031
  258   -0.00063
  259   -0.00027
  260   -0.00004
  261    0.00026
  262    0.00028
  263    0.00140
  264   -0.00122
  265   -0.00212
  266   -0.00118
  267   -0.00141
  268   -0.00038
  269   -0.00010
  270   -0.00049
  271    0.00050
  272   -0.00080
  273   -0.00100
  274    0.00047
  275    0.00095
  276   -0.00045
  277    0.00048
  278   -0.00135
  279   -0.00023
  280    0.00060
  281   -0.00070
  282   -0.00118
  283    0.00160
  284   -0.00344
  285    0.00354
  286   -0.00080
  287   -0.00084
  288   -0.00004
  289   -0.00001
  290    0.00029
  291   -0.00015
  292    0.00026
  293   -0.00210
  294    0.00239
  295   -0.00248
  296    0.00000
  297    0.00148
  298   -0.00001
  299   -0.00006
  300   -0.00006
  301    0.00000
  302    0.00006
  303    0.00001
  304    0.00002
  305   -0.00003
  306   -0.00004
  307    0.00087
  308    0.00023
  309    0.00069
  310   -0.00014
  311   -0.00056
  312   -0.00029
  313   -0.00063
  314    0.00026
  315   -0.00004
  316   -0.00026
  317    0.00029
  318    0.00138
  319    0.00126
  320   -0.00209
  321   -0.00119
  322   -0.00141
  323   -0.00037
  324    0.00011
  325   -0.00046
  326   -0.00052
  327   -0.00080
  328   -0.00098
  329   -0.00054
  330    0.00084
  331   -0.00044
  332    0.00049
  333   -0.00131
  334    0.00021
  335    0.00052
  336    0.00072
  337   -0.00123
  338    0.00143
  339    0.00339
  340    0.00340
  341   -0.00078
  342   -0.00082
  343    0.00004
  344   -0.00002
  345    0.00035
  346    0.00009
  347    0.00027
  348   -0.00212
  349   -0.00237
  350   -0.00252
 Ene=    -1.3792
 Spin= Alpha
 Occup= 2.0
    1   -0.00003
    2   -0.03328
    3   -0.00465
    4   -0.00415
    5   -0.00001
    6   -0.00631
    7   -0.00467
    8   -0.00001
    9   -0.00506
   10    0.00055
   11    0.00144
   12   -0.00071
   13   -0.00000
   14    0.00015
   15   -0.00000
   16    0.01531
   17    0.01279
   18    0.00012
   19    0.00885
   20   -0.00209
   21   -0.00262
   22   -0.00100
   23    0.00000
   24   -0.00044
   25    0.00000
   26   -0.00440
   27   -0.01279
   28   -0.00067
   29   -0.01462
   30    0.01229
   31    0.01284
   32    0.00958
   33    0.00001
   34    0.00128
   35   -0.00001
   36   -0.00355
   37    0.01605
   38    0.00066
   39    0.00811
   40    0.00489
   41    0.00359
   42    0.00782
   43    0.00003
   44    0.00363
   45    0.00004
   46    0.01590
   47   -0.01160
   48    0.00021
   49    0.01167
   50    0.00837
   51    0.01618
   52   -0.02319
   53   -0.00039
   54    0.00376
   55    0.00009
   56    0.02805
   57   -0.00091
   58   -0.00007
   59    0.02010
   60   -0.00282
   61   -0.01370
   62    0.02332
   63    0.00067
   64   -0.00877
   65   -0.00045
   66   -0.00214
   67   -0.46122
   68   -0.14509
   69    0.05421
   70    0.00058
   71   -0.04842
   72    0.04270
   73    0.00042
   74   -0.02786
   75    0.01124
   76    0.00035
   77    0.01218
   78    0.00016
   79    0.00666
   80    0.00010
   81   -0.07405
   82   -0.04394
   83   -0.00038
   84    0.01331
   85   -0.02970
   86   -0.01878
   87   -0.03227
   88   -0.00016
   89   -0.00431
   90   -0.00008
   91   -0.01623
   92    0.00650
   93   -0.00020
   94    0.01451
   95    0.10355
   96    0.07993
   97    0.10553
   98    0.00035
   99    0.00725
  100    0.00014
  101    0.01081
  102   -0.00738
  103   -0.00019
  104   -0.00455
  105    0.02088
  106    0.05322
  107    0.03087
  108   -0.00047
  109   -0.01540
  110   -0.00026
  111   -0.01164
  112    0.11645
  113    0.00113
  114    0.00666
  115    0.03341
  116    0.05481
  117    0.03358
  118   -0.00025
  119    0.02519
  120    0.00012
  121   -0.08612
  122    0.02968
  123    0.00032
  124    0.02965
  125    0.00210
  126    0.03006
  127    0.00429
  128   -0.00036
  129   -0.01068
  130   -0.00030
  131   -0.01476
  132   -0.00219
  133    0.00316
  134    0.00000
  135   -0.00134
  136   -0.00041
  137    0.00034
  138   -0.00000
  139   -0.00001
  140    0.00023
  141    0.00000
  142   -0.00143
  143   -0.00343
  144    0.00001
  145    0.00137
  146   -0.00072
  147   -0.00418
  148   -0.00210
  149    0.00004
  150   -0.00146
  151   -0.00000
  152   -0.00331
  153    0.00250
  154   -0.00013
  155   -0.00257
  156   -0.00858
  157    0.00123
  158   -0.00860
  159   -0.00012
  160    0.00599
  161    0.00001
  162    0.00447
  163    0.00150
  164    0.00095
  165   -0.01944
  166    0.00315
  167   -0.01327
  168    0.00346
  169   -0.00001
  170   -0.00327
  171    0.00008
  172    0.00052
  173   -0.01033
  174   -0.00188
  175    0.01351
  176   -0.00243
  177    0.00582
  178   -0.01168
  179    0.00027
  180    0.00195
  181   -0.00009
  182   -0.00513
  183    0.00494
  184   -0.00012
  185   -0.01804
  186   -0.02436
  187    0.00162
  188    0.00044
  189    0.00000
  190    0.00116
  191    0.00055
  192    0.00063
  193    0.00006
  194    0.00000
  195   -0.00012
  196   -0.00000
  197   -0.00139
  198   -0.00081
  199   -0.00001
  200   -0.00210
  201   -0.00466
  202   -0.00389
  203   -0.00514
  204   -0.00001
  205    0.00138
  206    0.00001
  207    0.00413
  208   -0.00384
  209   -0.00001
  210    0.00185
  211    0.01117
  212    0.00714
  213   -0.03284
  214    0.00002
  215    0.00375
  216    0.00001
  217   -0.00946
  218   -0.00103
  219   -0.00017
  220    0.01694
  221   -0.00336
  222   -0.00179
  223    0.01423
  224    0.00001
  225   -0.01383
  226   -0.00002
  227   -0.02389
  228    0.02907
  229    0.00103
  230    0.01849
  231    0.01878
  232    0.01568
  233    0.00339
  234   -0.00014
  235    0.00973
  236   -0.00019
  237    0.01852
  238   -0.01310
  239   -0.00002
  240   -0.03014
  241   -0.21521
  242   -0.00876
  243   -0.02150
  244    0.04091
  245    0.02016
  246    0.00259
  247   -0.00301
  248    0.00306
  249    0.00472
  250    0.00328
  251   -0.00445
  252   -0.00806
  253    0.02175
  254   -0.03763
  255   -0.02043
  256   -0.03864
  257   -0.02621
  258   -0.03983
  259   -0.01445
  260   -0.01135
  261    0.01356
  262   -0.00165
  263   -0.02159
  264    0.05190
  265    0.02006
  266   -0.03580
  267   -0.07553
  268   -0.03259
  269    0.03801
  270    0.02803
  271   -0.03408
  272    0.00359
  273   -0.04088
  274   -0.00614
  275    0.03195
  276    0.00548
  277    0.07266
  278   -0.00253
  279   -0.04796
  280   -0.03390
  281    0.04132
  282    0.01755
  283    0.02707
  284   -0.05651
  285   -0.01390
  286   -0.01700
  287   -0.04977
  288   -0.00416
  289    0.03362
  290    0.02848
  291   -0.02366
  292   -0.00872
  293   -0.08916
  294    0.07609
  295    0.01415
  296   -0.21522
  297   -0.00873
  298   -0.02050
  299   -0.04135
  300    0.02030
  301    0.00279
  302   -0.00318
  303    0.00303
  304   -0.00455
  305    0.00319
  306    0.00456
  307   -0.00803
  308    0.02082
  309    0.03807
  310   -0.02055
  311   -0.03921
  312   -0.02569
  313   -0.03975
  314    0.01404
  315   -0.01106
  316   -0.01387
  317   -0.00160
  318   -0.02027
  319   -0.05232
  320    0.02025
  321   -0.03428
  322   -0.07684
  323   -0.03275
  324   -0.03673
  325    0.02730
  326    0.03487
  327    0.00367
  328   -0.04120
  329    0.00563
  330    0.03148
  331    0.00356
  332    0.07444
  333   -0.00225
  334    0.04583
  335   -0.03308
  336   -0.04249
  337    0.01767
  338    0.02551
  339    0.05731
  340   -0.01410
  341   -0.01574
  342   -0.05089
  343   -0.00424
  344   -0.03256
  345    0.02803
  346    0.02457
  347   -0.00875
  348   -0.08743
  349   -0.07782
  350    0.01431
 Ene=    -1.3197
 Spin= Alpha
 Occup= 2.0
    1    0.00236
    2    0.46117
    3    0.16368
    4    0.06312
    5    0.00015
    6    0.04059
    7    0.06125
    8    0.00018
    9    0.07500
   10   -0.00406
   11   -0.01722
   12   -0.00359
   13    0.00003
   14   -0.00307
   15   -0.00001
   16    0.09632
   17   -0.06045
   18   -0.00013
   19   -0.08575
   20    0.02561
   21    0.03357
   22    0.02482
   23   -0.00002
   24    0.00357
   25    0.00001
   26    0.01634
   27   -0.03061
   28    0.00011
   29    0.01181
   30   -0.10344
   31   -0.11733
   32   -0.09835
   33    0.00004
   34   -0.00170
   35    0.00001
   36   -0.00003
   37   -0.01256
   38   -0.00020
   39   -0.01274
   40   -0.03802
   41   -0.01894
   42   -0.04774
   43   -0.00006
   44   -0.00442
   45    0.00003
   46   -0.00073
   47    0.03050
   48    0.00077
   49    0.03164
   50   -0.03374
   51   -0.02858
   52   -0.00722
   53    0.00007
   54    0.01754
   55   -0.00011
   56    0.01722
   57   -0.01065
   58   -0.00017
   59   -0.00094
   60    0.00617
   61   -0.00045
   62   -0.00959
   63   -0.00013
   64   -0.01394
   65    0.00024
   66   -0.00040
   67   -0.03786
   68   -0.00865
   69    0.00522
   70    0.00005
   71   -0.00983
   72    0.00594
   73   -0.00006
   74   -0.00860
   75    0.00063
   76   -0.00040
   77    0.00250
   78    0.00001
   79    0.00058
   80    0.00001
   81   -0.01739
   82    0.01805
   83    0.00016
   84   -0.05743
   85   -0.00189
   86   -0.00048
   87   -0.00453
   88   -0.00002
   89   -0.00002
   90   -0.00001
   91   -0.00035
   92   -0.01080
   93    0.00028
   94   -0.01805
   95   -0.00108
   96    0.00277
   97    0.02983
   98   -0.00002
   99    0.00373
  100    0.00007
  101    0.00369
  102   -0.01947
  103   -0.00012
  104   -0.00123
  105   -0.02291
  106   -0.00843
  107   -0.01947
  108   -0.00024
  109    0.03046
  110    0.00025
  111   -0.00531
  112   -0.03470
  113   -0.00014
  114   -0.02723
  115    0.02449
  116    0.02208
  117   -0.05379
  118   -0.00012
  119   -0.01675
  120    0.00009
  121    0.00866
  122    0.01797
  123    0.00026
  124   -0.02465
  125   -0.00861
  126    0.01055
  127    0.04160
  128   -0.00002
  129    0.02939
  130    0.00020
  131    0.22020
  132    0.00952
  133   -0.04612
  134   -0.00010
  135    0.01818
  136    0.00576
  137   -0.00494
  138   -0.00194
  139    0.00003
  140   -0.00402
  141   -0.00001
  142    0.00970
  143    0.04605
  144    0.00010
  145   -0.01668
  146    0.01937
  147    0.05009
  148    0.04309
  149   -0.00008
  150    0.01060
  151    0.00001
  152    0.00494
  153   -0.06790
  154   -0.00013
  155    0.03689
  156    0.08692
  157    0.00853
  158    0.03124
  159    0.00020
  160   -0.03393
  161   -0.00002
  162   -0.01526
  163    0.01365
  164    0.00001
  165    0.00422
  166   -0.08259
  167    0.01835
  168    0.00237
  169   -0.00025
  170    0.03908
  171    0.00004
  172   -0.05336
  173    0.02361
  174    0.00055
  175   -0.02245
  176    0.06536
  177    0.00949
  178   -0.00172
  179    0.00004
  180   -0.01201
  181    0.00008
  182    0.03024
  183   -0.04770
  184    0.00006
  185   -0.02525
  186    0.21094
  187   -0.00320
  188   -0.00077
  189   -0.00001
  190   -0.05750
  191   -0.00462
  192   -0.00558
  193    0.00925
  194    0.00000
  195    0.00042
  196    0.00000
  197    0.01032
  198    0.00167
  199    0.00001
  200    0.07700
  201    0.06367
  202    0.06540
  203   -0.03559
  204   -0.00000
  205   -0.00019
  206    0.00002
  207    0.00040
  208    0.00054
  209   -0.00006
  210   -0.09044
  211    0.02921
  212    0.03243
  213    0.16734
  214   -0.00000