 Entering Gaussian System, Link 0=/home/slavicek/G03/g09-altix/g09//g09
 Input=test.com
 Output=test.log
 Initial command:
 /home/slavicek/G03/g09-altix/g09/l1.exe "/scratch/hollas/GAUSS_test.com_119938/Gau-4839.inp" -scrdir="/scratch/hollas/GAUSS_test.com_119938/"
 Entering Link 1 = /home/slavicek/G03/g09-altix/g09/l1.exe PID=      4841.
  
 Copyright (c) 1988,1990,1992,1993,1995,1998,2003,2009,2013,
            Gaussian, Inc.  All Rights Reserved.
  
 This is part of the Gaussian(R) 09 program.  It is based on
 the Gaussian(R) 03 system (copyright 2003, Gaussian, Inc.),
 the Gaussian(R) 98 system (copyright 1998, Gaussian, Inc.),
 the Gaussian(R) 94 system (copyright 1995, Gaussian, Inc.),
 the Gaussian 92(TM) system (copyright 1992, Gaussian, Inc.),
 the Gaussian 90(TM) system (copyright 1990, Gaussian, Inc.),
 the Gaussian 88(TM) system (copyright 1988, Gaussian, Inc.),
 the Gaussian 86(TM) system (copyright 1986, Carnegie Mellon
 University), and the Gaussian 82(TM) system (copyright 1983,
 Carnegie Mellon University). Gaussian is a federally registered
 trademark of Gaussian, Inc.
  
 This software contains proprietary and confidential information,
 including trade secrets, belonging to Gaussian, Inc.
  
 This software is provided under written license and may be
 used, copied, transmitted, or stored only in accord with that
 written license.
  
 The following legend is applicable only to US Government
 contracts under FAR:
  
                    RESTRICTED RIGHTS LEGEND
  
 Use, reproduction and disclosure by the US Government is
 subject to restrictions as set forth in subparagraphs (a)
 and (c) of the Commercial Computer Software - Restricted
 Rights clause in FAR 52.227-19.
  
 Gaussian, Inc.
 340 Quinnipiac St., Bldg. 40, Wallingford CT 06492
  
  
 ---------------------------------------------------------------
 Warning -- This program may not be used in any manner that
 competes with the business of Gaussian, Inc. or will provide
 assistance to any competitor of Gaussian, Inc.  The licensee
 of this program is prohibited from giving any competitor of
 Gaussian, Inc. access to this program.  By using this program,
 the user acknowledges that Gaussian, Inc. is engaged in the
 business of creating and licensing software in the field of
 computational chemistry and represents and warrants to the
 licensee that it is not a competitor of Gaussian, Inc. and that
 it will not use this program in any manner prohibited above.
 ---------------------------------------------------------------
  

 Cite this work as:
 Gaussian 09, Revision D.01,
 M. J. Frisch, G. W. Trucks, H. B. Schlegel, G. E. Scuseria, 
 M. A. Robb, J. R. Cheeseman, G. Scalmani, V. Barone, B. Mennucci, 
 G. A. Petersson, H. Nakatsuji, M. Caricato, X. Li, H. P. Hratchian, 
 A. F. Izmaylov, J. Bloino, G. Zheng, J. L. Sonnenberg, M. Hada, 
 M. Ehara, K. Toyota, R. Fukuda, J. Hasegawa, M. Ishida, T. Nakajima, 
 Y. Honda, O. Kitao, H. Nakai, T. Vreven, J. A. Montgomery, Jr., 
 J. E. Peralta, F. Ogliaro, M. Bearpark, J. J. Heyd, E. Brothers, 
 K. N. Kudin, V. N. Staroverov, T. Keith, R. Kobayashi, J. Normand, 
 K. Raghavachari, A. Rendell, J. C. Burant, S. S. Iyengar, J. Tomasi, 
 M. Cossi, N. Rega, J. M. Millam, M. Klene, J. E. Knox, J. B. Cross, 
 V. Bakken, C. Adamo, J. Jaramillo, R. Gomperts, R. E. Stratmann, 
 O. Yazyev, A. J. Austin, R. Cammi, C. Pomelli, J. W. Ochterski, 
 R. L. Martin, K. Morokuma, V. G. Zakrzewski, G. A. Voth, 
 P. Salvador, J. J. Dannenberg, S. Dapprich, A. D. Daniels, 
 O. Farkas, J. B. Foresman, J. V. Ortiz, J. Cioslowski, 
 and D. J. Fox, Gaussian, Inc., Wallingford CT, 2013.
 
 ******************************************
 Gaussian 09:  ES64L-G09RevD.01 24-Apr-2013
                13-Feb-2018 
 ******************************************
 %mem=550Mb
 %NProcShared=1
 Will use up to    1 processors via shared memory.
 ---------------------------------------------
 #HF/aug-cc-pVTZ Symmetry=None OPT IOP(6/81=3)
 ---------------------------------------------
 1/18=20,19=15,38=1/1,3;
 2/9=110,12=2,15=3,17=6,18=5,40=1/2;
 3/5=16,6=1,7=10,11=9,16=1,25=1,30=1,71=1/1,2,3;
 4//1;
 5/5=2,38=5/2;
 6/7=2,8=2,9=2,10=2,28=1,81=3/1;
 7/30=1/1,2,3,16;
 1/18=20,19=15/3(2);
 2/9=110,15=3/2;
 99//99;
 2/9=110,15=3/2;
 3/5=16,6=1,7=10,11=9,16=1,25=1,30=1,71=1/1,2,3;
 4/5=5,16=3,69=1/1;
 5/5=2,38=5/2;
 7/30=1/1,2,3,16;
 1/18=20,19=15/3(-5);
 2/9=110,15=3/2;
 6/7=2,8=2,9=2,10=2,19=2,28=1,81=3/1;
 99/9=1/99;
 ------------
 neutral neon
 ------------
 Symbolic Z-matrix:
 Charge =  0 Multiplicity = 1
 Ne                    0.        0.        0.76328 
 

 GradGradGradGradGradGradGradGradGradGradGradGradGradGradGradGradGradGrad
 Berny optimization.
 Initialization pass.
 No Z-matrix variables, so optimization will use Cartesian coordinates.
 Trust Radius=1.00D-01 FncErr=1.00D-07 GrdErr=1.00D-07
 Number of steps in this run=     20 maximum allowed number of steps=    100.
 GradGradGradGradGradGradGradGradGradGradGradGradGradGradGradGradGradGrad

                          Input orientation:                          
 ---------------------------------------------------------------------
 Center     Atomic      Atomic             Coordinates (Angstroms)
 Number     Number       Type             X           Y           Z
 ---------------------------------------------------------------------
      1         10           0        0.000000    0.000000    0.763276
 ---------------------------------------------------------------------
 Symmetry turned off by external request.
 Stoichiometry    Ne
 Standard basis: Aug-CC-pVTZ (5D, 7F)
    46 basis functions,    72 primitive gaussians,    55 cartesian basis functions
     5 alpha electrons        5 beta electrons
       nuclear repulsion energy         0.0000000000 Hartrees.
 NAtoms=    1 NActive=    1 NUniq=    1 SFac= 1.00D+00 NAtFMM=   60 NAOKFM=F Big=F
 Integral buffers will be    131072 words long.
 Raffenetti 1 integral format.
 Two-electron integral symmetry is turned off.
 One-electron integrals computed using PRISM.
 NBasis=    46 RedAO= T EigKep=  3.53D-02  NBF=    46
 NBsUse=    46 1.00D-06 EigRej= -1.00D+00 NBFU=    46
 ExpMin= 9.17D-02 ExpMax= 2.44D+04 ExpMxC= 8.30D+02 IAcc=2 IRadAn=         4 AccDes= 0.00D+00
 Harris functional with IExCor=  205 and IRadAn=       4 diagonalized for initial guess.
 HarFok:  IExCor=  205 AccDes= 0.00D+00 IRadAn=         4 IDoV= 1 UseB2=F ITyADJ=14
 ICtDFT=  3500011 ScaDFX=  1.000000  1.000000  1.000000  1.000000
 FoFCou: FMM=F IPFlag=           0 FMFlag=      100000 FMFlg1=           0
         NFxFlg=           0 DoJE=T BraDBF=F KetDBF=T FulRan=T
         wScrn=  0.000000 ICntrl=     500 IOpCl=  0 I1Cent=   200000004 NGrid=           0
         NMat0=    1 NMatS0=      1 NMatT0=    0 NMatD0=    1 NMtDS0=    0 NMtDT0=    0
 Symmetry not used in FoFCou.
 Keep R1 ints in memory in canonical form, NReq=2566118.
 Requested convergence on RMS density matrix=1.00D-08 within 128 cycles.
 Requested convergence on MAX density matrix=1.00D-06.
 Requested convergence on             energy=1.00D-06.
 No special actions if energy rises.
 SCF Done:  E(RHF) =  -128.533272820     A.U. after    7 cycles
            NFock=  7  Conv=0.31D-08     -V/T= 2.0004

 **********************************************************************

            Population analysis using the SCF density.

 **********************************************************************

 Alpha  occ. eigenvalues --  -32.77902  -1.93341  -0.85121  -0.85121  -0.85121
 Alpha virt. eigenvalues --    0.24081   0.24081   0.24081   0.24250   1.13173
 Alpha virt. eigenvalues --    1.13173   1.13173   1.13173   1.13173   1.35452
 Alpha virt. eigenvalues --    1.35452   1.35452   1.98645   3.60906   3.60906
 Alpha virt. eigenvalues --    3.60906   3.60906   3.60906   4.19770   4.19770
 Alpha virt. eigenvalues --    4.19770   4.19770   4.19770   4.19770   4.19770
 Alpha virt. eigenvalues --    6.34349   6.34349   6.34349  11.81284  11.81284
 Alpha virt. eigenvalues --   11.81284  11.81284  11.81284  11.98663  11.98663
 Alpha virt. eigenvalues --   11.98663  11.98663  11.98663  11.98663  11.98663
 Alpha virt. eigenvalues --   12.90779
          Condensed to atoms (all electrons):
               1
     1  Ne  10.000000
 Mulliken charges:
               1
     1  Ne   0.000000
 Sum of Mulliken charges =   0.00000
 Mulliken charges with hydrogens summed into heavy atoms:
               1
     1  Ne   0.000000
 Electronic spatial extent (au):  <R**2>=             30.2096
 Charge=              0.0000 electrons
 Dipole moment (field-independent basis, Debye):
    X=              0.0000    Y=              0.0000    Z=              0.0000  Tot=              0.0000
 Quadrupole moment (field-independent basis, Debye-Ang):
   XX=             -4.2166   YY=             -4.2166   ZZ=             -4.2166
   XY=              0.0000   XZ=              0.0000   YZ=              0.0000
 Traceless Quadrupole moment (field-independent basis, Debye-Ang):
   XX=              0.0000   YY=              0.0000   ZZ=              0.0000
   XY=              0.0000   XZ=              0.0000   YZ=              0.0000
 Octapole moment (field-independent basis, Debye-Ang**2):
  XXX=              0.0000  YYY=              0.0000  ZZZ=             -9.6554  XYY=              0.0000
  XXY=              0.0000  XXZ=             -3.2185  XZZ=              0.0000  YZZ=              0.0000
  YYZ=             -3.2185  XYZ=              0.0000
 Hexadecapole moment (field-independent basis, Debye-Ang**3):
 XXXX=             -2.0491 YYYY=             -2.0491 ZZZZ=            -16.7885 XXXY=              0.0000
 XXXZ=              0.0000 YYYX=              0.0000 YYYZ=              0.0000 ZZZX=              0.0000
 ZZZY=              0.0000 XXYY=             -0.6830 XXZZ=             -3.1396 YYZZ=             -3.1396
 XXYZ=              0.0000 YYXZ=              0.0000 ZZXY=              0.0000
 N-N= 0.000000000000D+00 E-N=-3.110191630095D+02  KE= 1.284847670645D+02
 Orbital energies and kinetic energies (alpha):
                                 1                 2
   1         O               -32.779024         46.263980
   2         O                -1.933413          5.215104
   3         O                -0.851213          4.254433
   4         O                -0.851213          4.254433
   5         O                -0.851213          4.254433
   6         V                 0.240809          0.443872
   7         V                 0.240809          0.443872
   8         V                 0.240809          0.443872
   9         V                 0.242497          0.633047
  10         V                 1.131728          1.289079
  11         V                 1.131728          1.289079
  12         V                 1.131728          1.289079
  13         V                 1.131728          1.289079
  14         V                 1.131728          1.289079
  15         V                 1.354520          3.081119
  16         V                 1.354520          3.081119
  17         V                 1.354520          3.081119
  18         V                 1.986446          4.866338
  19         V                 3.609056          4.718458
  20         V                 3.609056          4.718458
  21         V                 3.609056          4.718458
  22         V                 3.609056          4.718458
  23         V                 3.609056          4.718458
  24         V                 4.197703          4.542427
  25         V                 4.197703          4.542427
  26         V                 4.197703          4.542427
  27         V                 4.197703          4.542427
  28         V                 4.197703          4.542427
  29         V                 4.197703          4.542427
  30         V                 4.197703          4.542427
  31         V                 6.343490         15.042074
  32         V                 6.343490         15.042074
  33         V                 6.343490         15.042074
  34         V                11.812843         16.553577
  35         V                11.812843         16.553577
  36         V                11.812843         16.553577
  37         V                11.812843         16.553577
  38         V                11.812843         16.553577
  39         V                11.986630         13.960538
  40         V                11.986630         13.960538
  41         V                11.986630         13.960538
  42         V                11.986630         13.960538
  43         V                11.986630         13.960538
  44         V                11.986630         13.960538
  45         V                11.986630         13.960538
  46         V                12.907795         41.422516
 Total kinetic energy from orbitals= 1.284847670645D+02
 Calling FoFJK, ICntrl=      2127 FMM=F ISym2X=0 I1Cent= 0 IOpClX= 0 NMat=1 NMatS=1 NMatT=0.
 -------------------------------------------------------------------
 Center     Atomic                   Forces (Hartrees/Bohr)
 Number     Number              X              Y              Z
 -------------------------------------------------------------------
      1       10           0.000000000    0.000000000    0.000000000
 -------------------------------------------------------------------
 Cartesian Forces:  Max     0.000000000 RMS     0.000000000

 GradGradGradGradGradGradGradGradGradGradGradGradGradGradGradGradGradGrad
 Berny optimization.
 Search for a local minimum.
 Step number   1 out of a maximum of   20
 All quantities printed in internal units (Hartrees-Bohrs-Radians)
 Mixed Optimization -- En-DIIS/RFO-DIIS
 Second derivative matrix not updated -- first step.
 The second derivative matrix:
                          X1        Y1        Z1
           X1           0.00000
           Y1           0.00000   0.00000
           Z1           0.00000   0.00000   0.00000
 ITU=  0
     Eigenvalues --- 
 RFO step:  Lambda=-5.96046448D-09 EMin= 0.00000000D+00
 Linear search not attempted -- first point.
 TrRot=  0.000000  0.000000  0.000000  0.000000  0.000000  0.000000
 Variable       Old X    -DE/DX   Delta X   Delta X   Delta X     New X
                                 (Linear)    (Quad)   (Total)
    X1        0.00000   0.00000   0.00000   0.00000   0.00000   0.00000
    Y1        0.00000   0.00000   0.00000   0.00000   0.00000   0.00000
    Z1        1.44238   0.00000   0.00000   0.00000   0.00000   1.44238
         Item               Value     Threshold  Converged?
 Maximum Force            0.000000     0.000450     YES
 RMS     Force            0.000000     0.000300     YES
 Maximum Displacement     0.000000     0.001800     YES
 RMS     Displacement     0.000000     0.001200     YES
 Predicted change in Energy= 0.000000D+00
 Optimization completed.
    -- Stationary point found.
 GradGradGradGradGradGradGradGradGradGradGradGradGradGradGradGradGradGrad

                          Input orientation:                          
 ---------------------------------------------------------------------
 Center     Atomic      Atomic             Coordinates (Angstroms)
 Number     Number       Type             X           Y           Z
 ---------------------------------------------------------------------
      1         10           0        0.000000    0.000000    0.763276
 ---------------------------------------------------------------------
 Symmetry turned off by external request.
 Stoichiometry    Ne

 Test job not archived.
 1\1\GINC-N29\FOpt\RHF\Aug-CC-pVTZ\Ne1\HOLLAS\13-Feb-2018\0\\#HF/aug-cc
 -pVTZ Symmetry=None OPT IOP(6/81=3)\\neutral neon\\0,1\Ne,0.,0.,0.7632
 76\\Version=ES64L-G09RevD.01\HF=-128.5332728\RMSD=3.097e-09\RMSF=1.139
 e-31\Dipole=0.,0.,0.\Quadrupole=0.,0.,0.,0.,0.,0.\PG=Unknown\\@


 A SOLDIER'S LIFE IS A LIFE OF HONOR, BUT A DOG WOULD NOT LEAD IT.
 -- PRINCE RUPERT, FOUNDER OF THE HUDSON'S BAY COMPANY
 Job cpu time:       0 days  0 hours  0 minutes  1.6 seconds.
 File lengths (MBytes):  RWF=      5 Int=      0 D2E=      0 Chk=      1 Scr=      1
 Normal termination of Gaussian 09 at Tue Feb 13 16:17:04 2018.
