 Entering Gaussian System, Link 0=/home/slavicek/G03/g09-altix/g09//g09
 Input=wat1_wpbe_w512.com
 Output=wat1_wpbe_w512.log
 Initial command:
 /home/slavicek/G03/g09-altix/g09/l1.exe "/scratch/hollas/GAUSS_wat1_wpbe_w512.com_119933/Gau-29515.inp" -scrdir="/scratch/hollas/GAUSS_wat1_wpbe_w512.com_119933/"
 Entering Link 1 = /home/slavicek/G03/g09-altix/g09/l1.exe PID=     29517.
  
 Copyright (c) 1988,1990,1992,1993,1995,1998,2003,2009,2013,
            Gaussian, Inc.  All Rights Reserved.
  
 This is part of the Gaussian(R) 09 program.  It is based on
 the Gaussian(R) 03 system (copyright 2003, Gaussian, Inc.),
 the Gaussian(R) 98 system (copyright 1998, Gaussian, Inc.),
 the Gaussian(R) 94 system (copyright 1995, Gaussian, Inc.),
 the Gaussian 92(TM) system (copyright 1992, Gaussian, Inc.),
 the Gaussian 90(TM) system (copyright 1990, Gaussian, Inc.),
 the Gaussian 88(TM) system (copyright 1988, Gaussian, Inc.),
 the Gaussian 86(TM) system (copyright 1986, Carnegie Mellon
 University), and the Gaussian 82(TM) system (copyright 1983,
 Carnegie Mellon University). Gaussian is a federally registered
 trademark of Gaussian, Inc.
  
 This software contains proprietary and confidential information,
 including trade secrets, belonging to Gaussian, Inc.
  
 This software is provided under written license and may be
 used, copied, transmitted, or stored only in accord with that
 written license.
  
 The following legend is applicable only to US Government
 contracts under FAR:
  
                    RESTRICTED RIGHTS LEGEND
  
 Use, reproduction and disclosure by the US Government is
 subject to restrictions as set forth in subparagraphs (a)
 and (c) of the Commercial Computer Software - Restricted
 Rights clause in FAR 52.227-19.
  
 Gaussian, Inc.
 340 Quinnipiac St., Bldg. 40, Wallingford CT 06492
  
  
 ---------------------------------------------------------------
 Warning -- This program may not be used in any manner that
 competes with the business of Gaussian, Inc. or will provide
 assistance to any competitor of Gaussian, Inc.  The licensee
 of this program is prohibited from giving any competitor of
 Gaussian, Inc. access to this program.  By using this program,
 the user acknowledges that Gaussian, Inc. is engaged in the
 business of creating and licensing software in the field of
 computational chemistry and represents and warrants to the
 licensee that it is not a competitor of Gaussian, Inc. and that
 it will not use this program in any manner prohibited above.
 ---------------------------------------------------------------
  

 Cite this work as:
 Gaussian 09, Revision D.01,
 M. J. Frisch, G. W. Trucks, H. B. Schlegel, G. E. Scuseria, 
 M. A. Robb, J. R. Cheeseman, G. Scalmani, V. Barone, B. Mennucci, 
 G. A. Petersson, H. Nakatsuji, M. Caricato, X. Li, H. P. Hratchian, 
 A. F. Izmaylov, J. Bloino, G. Zheng, J. L. Sonnenberg, M. Hada, 
 M. Ehara, K. Toyota, R. Fukuda, J. Hasegawa, M. Ishida, T. Nakajima, 
 Y. Honda, O. Kitao, H. Nakai, T. Vreven, J. A. Montgomery, Jr., 
 J. E. Peralta, F. Ogliaro, M. Bearpark, J. J. Heyd, E. Brothers, 
 K. N. Kudin, V. N. Staroverov, T. Keith, R. Kobayashi, J. Normand, 
 K. Raghavachari, A. Rendell, J. C. Burant, S. S. Iyengar, J. Tomasi, 
 M. Cossi, N. Rega, J. M. Millam, M. Klene, J. E. Knox, J. B. Cross, 
 V. Bakken, C. Adamo, J. Jaramillo, R. Gomperts, R. E. Stratmann, 
 O. Yazyev, A. J. Austin, R. Cammi, C. Pomelli, J. W. Ochterski, 
 R. L. Martin, K. Morokuma, V. G. Zakrzewski, G. A. Voth, 
 P. Salvador, J. J. Dannenberg, S. Dapprich, A. D. Daniels, 
 O. Farkas, J. B. Foresman, J. V. Ortiz, J. Cioslowski, 
 and D. J. Fox, Gaussian, Inc., Wallingford CT, 2013.
 
 ******************************************
 Gaussian 09:  ES64L-G09RevD.01 24-Apr-2013
                 5-Feb-2018 
 ******************************************
 %mem=550Mb
 %NProcShared=1
 Will use up to    1 processors via shared memory.
 ----------------------------------------------------------------------
 #LC-wPBE/aug-cc-pVTZ SP POP=FULL IOP(6/81=3) IOP(3/107=0512000000,3/10
 8=0512000000)
 ----------------------------------------------------------------------
 1/38=1/1;
 2/12=2,17=6,18=5,40=1/2;
 3/5=16,6=1,7=10,11=2,16=1,25=1,30=1,74=-41,107=512000000,108=512000000/1,2,3;
 4//1;
 5/5=2,38=5/2;
 6/7=3,28=1,81=3/1;
 99/5=1,9=1/99;
 ------------------------------------------------
 water dimer, printing kinetic energy of orbitals
 ------------------------------------------------
 Symbolic Z-matrix:
 Charge =  0 Multiplicity = 1
 O                    -1.52486  -0.00632  -0.11979 
 H                    -1.9058    0.04006   0.76328 
 H                    -0.56361   0.00267   0.01117 
 
                          Input orientation:                          
 ---------------------------------------------------------------------
 Center     Atomic      Atomic             Coordinates (Angstroms)
 Number     Number       Type             X           Y           Z
 ---------------------------------------------------------------------
      1          8           0       -1.524855   -0.006319   -0.119794
      2          1           0       -1.905803    0.040057    0.763276
      3          1           0       -0.563607    0.002668    0.011166
 ---------------------------------------------------------------------
                    Distance matrix (angstroms):
                    1          2          3
     1  O    0.000000
     2  H    0.962852   0.000000
     3  H    0.970170   1.539012   0.000000
 Stoichiometry    H2O
 Framework group  CS[SG(H2O)]
 Deg. of freedom     3
 Full point group                 CS      NOp   2
 Largest Abelian subgroup         CS      NOp   2
 Largest concise Abelian subgroup C1      NOp   1
                         Standard orientation:                         
 ---------------------------------------------------------------------
 Center     Atomic      Atomic             Coordinates (Angstroms)
 Number     Number       Type             X           Y           Z
 ---------------------------------------------------------------------
      1          8           0        0.000000    0.116965    0.000000
      2          1           0        0.769482   -0.461812    0.000000
      3          1           0       -0.769482   -0.473904    0.000000
 ---------------------------------------------------------------------
 Rotational constants (GHZ):    825.5705348    423.3990532    279.8673292
 Standard basis: Aug-CC-pVTZ (5D, 7F)
 There are    73 symmetry adapted cartesian basis functions of A'  symmetry.
 There are    32 symmetry adapted cartesian basis functions of A"  symmetry.
 There are    62 symmetry adapted basis functions of A'  symmetry.
 There are    30 symmetry adapted basis functions of A"  symmetry.
    92 basis functions,   126 primitive gaussians,   105 cartesian basis functions
     5 alpha electrons        5 beta electrons
       nuclear repulsion energy         9.1041737171 Hartrees.
 NAtoms=    3 NActive=    3 NUniq=    3 SFac= 1.00D+00 NAtFMM=   60 NAOKFM=F Big=F
 Integral buffers will be    131072 words long.
 Raffenetti 2 integral format.
 Two-electron integral symmetry is turned on.
 One-electron integrals computed using PRISM.
 NBasis=    92 RedAO= T EigKep=  5.52D-04  NBF=    62    30
 NBsUse=    92 1.00D-06 EigRej= -1.00D+00 NBFU=    62    30
 ExpMin= 2.53D-02 ExpMax= 1.53D+04 ExpMxC= 5.22D+02 IAcc=3 IRadAn=         5 AccDes= 0.00D+00
 Harris functional with IExCor=32609 and IRadAn=       5 diagonalized for initial guess.
 HarFok:  IExCor=32609 AccDes= 0.00D+00 IRadAn=         5 IDoV= 1 UseB2=F ITyADJ=14
 ICtDFT=  3500011 ScaDFX=  1.000000  1.000000  1.000000  1.000000
 FoFCou: FMM=F IPFlag=           0 FMFlag=      100000 FMFlg1=           0
         NFxFlg=           0 DoJE=T BraDBF=F KetDBF=T FulRan=T
         wScrn=  0.000000 ICntrl=     500 IOpCl=  0 I1Cent=   200000004 NGrid=           0
         NMat0=    1 NMatS0=      1 NMatT0=    0 NMatD0=    1 NMtDS0=    0 NMtDT0=    0
 Petite list used in FoFCou.
 Initial guess orbital symmetries:
       Occupied  (A') (A') (A') (A') (A")
       Virtual   (A') (A') (A') (A") (A') (A') (A') (A') (A") (A')
                 (A") (A') (A') (A') (A') (A') (A') (A") (A") (A')
                 (A') (A") (A") (A') (A") (A') (A') (A') (A') (A")
                 (A') (A') (A") (A') (A") (A') (A") (A') (A') (A')
                 (A') (A") (A") (A') (A') (A") (A') (A') (A') (A")
                 (A') (A') (A") (A') (A') (A") (A") (A') (A') (A")
                 (A") (A") (A') (A') (A') (A') (A") (A') (A') (A')
                 (A") (A') (A') (A') (A") (A') (A") (A") (A') (A")
                 (A") (A') (A') (A') (A') (A') (A')
 The electronic state of the initial guess is 1-A'.
 Keep R1 ints in memory in symmetry-blocked form, NReq=27679059.
 Requested convergence on RMS density matrix=1.00D-08 within 128 cycles.
 Requested convergence on MAX density matrix=1.00D-06.
 Requested convergence on             energy=1.00D-06.
 No special actions if energy rises.
 SCF Done:  E(RLC-wPBE) =  -76.4299653354     A.U. after    9 cycles
            NFock=  9  Conv=0.26D-08     -V/T= 2.0070

 **********************************************************************

            Population analysis using the SCF density.

 **********************************************************************

 Orbital symmetries:
       Occupied  (A') (A') (A') (A') (A")
       Virtual   (A') (A') (A') (A") (A') (A') (A') (A') (A") (A")
                 (A') (A') (A') (A') (A') (A') (A') (A") (A") (A')
                 (A") (A') (A') (A") (A") (A') (A') (A') (A') (A")
                 (A') (A') (A") (A') (A") (A') (A") (A') (A') (A')
                 (A') (A") (A") (A') (A') (A") (A') (A') (A') (A")
                 (A') (A') (A") (A') (A') (A") (A") (A') (A') (A")
                 (A") (A") (A') (A') (A') (A') (A") (A') (A') (A')
                 (A") (A') (A') (A') (A") (A') (A") (A") (A') (A")
                 (A") (A') (A') (A') (A') (A') (A')
 The electronic state is 1-A'.
 Alpha  occ. eigenvalues --  -19.03166  -1.19248  -0.68653  -0.54274  -0.46983
 Alpha virt. eigenvalues --    0.02710   0.04695   0.13031   0.15625   0.16793
 Alpha virt. eigenvalues --    0.17698   0.21851   0.23939   0.26045   0.29481
 Alpha virt. eigenvalues --    0.30248   0.36284   0.40988   0.43421   0.56850
 Alpha virt. eigenvalues --    0.62381   0.67973   0.69523   0.70350   0.79924
 Alpha virt. eigenvalues --    0.82142   0.84989   0.88473   0.88587   0.90198
 Alpha virt. eigenvalues --    0.90731   0.93516   0.98450   0.99476   1.03870
 Alpha virt. eigenvalues --    1.09318   1.14944   1.15569   1.22250   1.44937
 Alpha virt. eigenvalues --    1.48743   1.51591   1.71115   1.73477   1.87743
 Alpha virt. eigenvalues --    2.00118   2.13963   2.19711   2.21178   2.27235
 Alpha virt. eigenvalues --    2.31106   2.32145   2.36237   2.56720   2.58316
 Alpha virt. eigenvalues --    2.62418   2.72082   2.75798   3.46611   3.56931
 Alpha virt. eigenvalues --    3.79992   3.85925   4.02980   4.08465   4.15110
 Alpha virt. eigenvalues --    4.21847   4.22911   4.24118   4.29782   4.44543
 Alpha virt. eigenvalues --    4.58167   4.94441   4.94861   5.04475   5.06254
 Alpha virt. eigenvalues --    5.24932   5.43459   5.85638   6.21006   6.39104
 Alpha virt. eigenvalues --    6.55534   6.79758   6.87615   6.93645   6.97177
 Alpha virt. eigenvalues --    6.97986   6.98143   7.16841   7.53722   7.54809
 Alpha virt. eigenvalues --    8.38234  14.85591
     Molecular Orbital Coefficients:
                           1         2         3         4         5
                           O         O         O         O         O
     Eigenvalues --   -19.03166  -1.19248  -0.68653  -0.54274  -0.46983
   1 1   O  1S          0.97321  -0.20408   0.00069  -0.07303   0.00000
   2        2S         -0.00691   0.45755  -0.00204   0.18289   0.00000
   3        3S          0.05163   0.13704  -0.00050   0.05566   0.00000
   4        4S          0.00826   0.27609  -0.00505   0.35290   0.00000
   5        5S          0.00185   0.02885  -0.00093   0.11250   0.00000
   6        6PX         0.00000   0.00128   0.29990  -0.00091   0.00000
   7        6PY        -0.00142  -0.06152   0.00030   0.32416   0.00000
   8        6PZ         0.00000   0.00000   0.00000   0.00000   0.36508
   9        7PX         0.00023   0.00097   0.32663  -0.00074   0.00000
  10        7PY        -0.00168  -0.07294   0.00076   0.36939   0.00000
  11        7PZ         0.00000   0.00000   0.00000   0.00000   0.43543
  12        8PX         0.00036  -0.00043   0.13502   0.00026   0.00000
  13        8PY        -0.00005  -0.01914   0.00123   0.20377   0.00000
  14        8PZ         0.00000   0.00000   0.00000   0.00000   0.32132
  15        9PX         0.00006  -0.00003   0.00499  -0.00003   0.00000
  16        9PY        -0.00006  -0.00176   0.00007   0.01587   0.00000
  17        9PZ         0.00000   0.00000   0.00000   0.00000   0.04171
  18       10D 0       -0.00051  -0.00407  -0.00002   0.00493   0.00000
  19       10D+1        0.00000   0.00000   0.00000   0.00000   0.00008
  20       10D-1        0.00000   0.00000   0.00000   0.00000  -0.00601
  21       10D+2        0.00026   0.00101   0.00013   0.00413   0.00000
  22       10D-2       -0.00002  -0.00005  -0.01085   0.00005   0.00000
  23       11D 0       -0.00004  -0.00933   0.00013   0.00559   0.00000
  24       11D+1        0.00000   0.00000   0.00000   0.00000   0.00003
  25       11D-1        0.00000   0.00000   0.00000   0.00000  -0.01521
  26       11D+2       -0.00013   0.00072   0.00004   0.01625   0.00000
  27       11D-2       -0.00009   0.00018  -0.01625   0.00002   0.00000
  28       12D 0        0.00074   0.00181   0.00033  -0.00755   0.00000
  29       12D+1        0.00000   0.00000   0.00000   0.00000  -0.00013
  30       12D-1        0.00000   0.00000   0.00000   0.00000  -0.00642
  31       12D+2       -0.00040  -0.00251  -0.00019   0.00969   0.00000
  32       12D-2       -0.00008   0.00026   0.00398  -0.00027   0.00000
  33       13F 0        0.00000   0.00000   0.00000   0.00000  -0.00343
  34       13F+1       -0.00001   0.00001  -0.00201   0.00000   0.00000
  35       13F-1        0.00025   0.00098  -0.00001  -0.00227   0.00000
  36       13F+2        0.00000   0.00000   0.00000   0.00000   0.00111
  37       13F-2        0.00000   0.00000   0.00000   0.00000   0.00000
  38       13F+3        0.00000   0.00002   0.00138   0.00000   0.00000
  39       13F-3       -0.00049  -0.00108   0.00004   0.00091   0.00000
  40       14F 0        0.00000   0.00000   0.00000   0.00000  -0.00149
  41       14F+1        0.00001   0.00004  -0.00175  -0.00002   0.00000
  42       14F-1       -0.00053   0.00075  -0.00006  -0.00029   0.00000
  43       14F+2        0.00000   0.00000   0.00000   0.00000  -0.00006
  44       14F-2        0.00000   0.00000   0.00000   0.00000   0.00010
  45       14F+3       -0.00001   0.00007  -0.00102  -0.00007   0.00000
  46       14F-3        0.00118   0.00037   0.00010  -0.00221   0.00000
  47 2   H  1S          0.00097   0.09446   0.14535  -0.08353   0.00000
  48        2S         -0.00272   0.08661   0.23364  -0.17825   0.00000
  49        3S         -0.00269  -0.00127   0.06294  -0.07695   0.00000
  50        4S         -0.00009  -0.00122  -0.00217  -0.00308   0.00000
  51        5PX         0.00036  -0.01085  -0.00932   0.00922   0.00000
  52        5PY        -0.00015   0.00724   0.01254   0.00259   0.00000
  53        5PZ         0.00000   0.00000   0.00000   0.00000   0.01149
  54        6PX         0.00238  -0.01121  -0.02322   0.03457   0.00000
  55        6PY        -0.00166   0.00727   0.02971   0.00024   0.00000
  56        6PZ         0.00000   0.00000   0.00000   0.00000   0.03200
  57        7PX         0.00102   0.00192   0.00189   0.00665   0.00000
  58        7PY        -0.00083  -0.00158   0.00392   0.00979   0.00000
  59        7PZ         0.00000   0.00000   0.00000   0.00000   0.02247
  60        8D 0        0.00075  -0.00159  -0.00377   0.00162   0.00000
  61        8D+1        0.00000   0.00000   0.00000   0.00000  -0.00433
  62        8D-1        0.00000   0.00000   0.00000   0.00000   0.00318
  63        8D+2       -0.00039   0.00081  -0.00015  -0.00371   0.00000
  64        8D-2        0.00120  -0.00272  -0.00642   0.00140   0.00000
  65        9D 0        0.00029  -0.00005  -0.00057   0.00130   0.00000
  66        9D+1        0.00000   0.00000   0.00000   0.00000  -0.00659
  67        9D-1        0.00000   0.00000   0.00000   0.00000   0.00431
  68        9D+2       -0.00011   0.00014  -0.00174  -0.00315   0.00000
  69        9D-2        0.00057   0.00012  -0.00355  -0.00204   0.00000
  70 3   H  1S          0.00095   0.09248  -0.14446  -0.08411   0.00000
  71        2S         -0.00179   0.08407  -0.23063  -0.17818   0.00000
  72        3S         -0.00195  -0.00155  -0.06292  -0.07822   0.00000
  73        4S         -0.00002  -0.00121   0.00222  -0.00313   0.00000
  74        5PX        -0.00028   0.01043  -0.00895  -0.00907   0.00000
  75        5PY        -0.00009   0.00709  -0.01237   0.00242   0.00000
  76        5PZ         0.00000   0.00000   0.00000   0.00000   0.01129
  77        6PX        -0.00198   0.01074  -0.02259  -0.03459   0.00000
  78        6PY        -0.00139   0.00717  -0.02967  -0.00052   0.00000
  79        6PZ         0.00000   0.00000   0.00000   0.00000   0.03147
  80        7PX        -0.00080  -0.00192   0.00167  -0.00709   0.00000
  81        7PY        -0.00071  -0.00157  -0.00410   0.00937   0.00000
  82        7PZ         0.00000   0.00000   0.00000   0.00000   0.02217
  83        8D 0        0.00070  -0.00150   0.00370   0.00161   0.00000
  84        8D+1        0.00000   0.00000   0.00000   0.00000   0.00424
  85        8D-1        0.00000   0.00000   0.00000   0.00000   0.00318
  86        8D+2       -0.00034   0.00070   0.00030  -0.00362   0.00000
  87        8D-2       -0.00111   0.00257  -0.00629  -0.00146   0.00000
  88        9D 0        0.00025  -0.00012   0.00073   0.00149   0.00000
  89        9D+1        0.00000   0.00000   0.00000   0.00000   0.00644
  90        9D-1        0.00000   0.00000   0.00000   0.00000   0.00427
  91        9D+2       -0.00007   0.00011   0.00173  -0.00319   0.00000
  92        9D-2       -0.00051  -0.00001  -0.00379   0.00170   0.00000
                           6         7         8         9        10
                           V         V         V         V         V
     Eigenvalues --     0.02710   0.04695   0.13031   0.15625   0.16793
   1 1   O  1S         -0.02952   0.00005   0.02451   0.00000   0.05735
   2        2S          0.07102  -0.00053  -0.08452   0.00000  -0.15077
   3        3S          0.01977  -0.00017  -0.03186   0.00000  -0.06488
   4        4S          0.76714  -0.00917   1.64738   0.00000   1.31952
   5        5S          2.24034  -0.02309   6.79689   0.00000   2.90303
   6        6PX        -0.00061  -0.03710   0.00063   0.00000   0.00458
   7        6PY        -0.03846  -0.00030   0.10945   0.00000   0.01435
   8        6PZ         0.00000   0.00000   0.00000  -0.09992   0.00000
   9        7PX        -0.00002  -0.07959   0.00259   0.00000   0.00470
  10        7PY        -0.07750  -0.00010   0.04673   0.00000  -0.05203
  11        7PZ         0.00000   0.00000   0.00000  -0.09076   0.00000
  12        8PX         0.00172  -0.52982   0.00481   0.00000  -0.02679
  13        8PY        -0.33433  -0.00117  -0.45820   0.00000  -0.47027
  14        8PZ         0.00000   0.00000   0.00000   0.04003   0.00000
  15        9PX        -0.00254  -1.11629   0.00745   0.00000  -0.08351
  16        9PY        -0.20165  -0.00681  -1.89957   0.00000   1.15712
  17        9PZ         0.00000   0.00000   0.00000   1.80128   0.00000
  18       10D 0        0.00088   0.00001  -0.00040   0.00000   0.00317
  19       10D+1        0.00000   0.00000   0.00000  -0.00001   0.00000
  20       10D-1        0.00000   0.00000   0.00000  -0.00169   0.00000
  21       10D+2       -0.00071  -0.00001   0.00102   0.00000   0.00082
  22       10D-2       -0.00004  -0.00024  -0.00005   0.00000  -0.00013
  23       11D 0       -0.02195   0.00014  -0.02058   0.00000  -0.06902
  24       11D+1        0.00000   0.00000   0.00000  -0.00021   0.00000
  25       11D-1        0.00000   0.00000   0.00000   0.02870   0.00000
  26       11D+2        0.00524  -0.00038   0.02130   0.00000   0.02116
  27       11D-2        0.00000   0.02855   0.00035   0.00000   0.00226
  28       12D 0       -0.04636   0.00003  -0.09614   0.00000  -0.01181
  29       12D+1        0.00000   0.00000   0.00000   0.00268   0.00000
  30       12D-1        0.00000   0.00000   0.00000  -0.19926   0.00000
  31       12D+2        0.03018  -0.00150  -0.03291   0.00000   0.14825
  32       12D-2        0.00052   0.12379  -0.00133   0.00000   0.01065
  33       13F 0        0.00000   0.00000   0.00000   0.00453   0.00000
  34       13F+1       -0.00001   0.00036  -0.00002   0.00000  -0.00006
  35       13F-1        0.00049  -0.00001   0.00113   0.00000   0.00232
  36       13F+2        0.00000   0.00000   0.00000  -0.00067   0.00000
  37       13F-2        0.00000   0.00000   0.00000   0.00004   0.00000
  38       13F+3        0.00000   0.00065   0.00008   0.00000   0.00014
  39       13F-3       -0.00100   0.00003  -0.00391   0.00000  -0.00355
  40       14F 0        0.00000   0.00000   0.00000  -0.01328   0.00000
  41       14F+1        0.00006   0.01001   0.00012   0.00000   0.00078
  42       14F-1        0.00603   0.00008   0.00074   0.00000   0.00799
  43       14F+2        0.00000   0.00000   0.00000   0.00028   0.00000
  44       14F-2        0.00000   0.00000   0.00000  -0.00016   0.00000
  45       14F+3        0.00027   0.00123   0.00001   0.00000   0.00076
  46       14F-3       -0.01071  -0.00005   0.00288   0.00000  -0.03055
  47 2   H  1S         -0.00566  -0.00500   0.01069   0.00000   0.03896
  48        2S         -0.24093   0.25610  -0.27509   0.00000  -0.40689
  49        3S         -0.90896   1.34115  -3.17071   0.00000  -0.55156
  50        4S         -0.81856   3.34635  -0.79554   0.00000  -0.52286
  51        5PX        -0.00315   0.00002   0.00336   0.00000   0.01381
  52        5PY         0.00090  -0.00168  -0.00197   0.00000  -0.00815
  53        5PZ         0.00000   0.00000   0.00000   0.00042   0.00000
  54        6PX         0.07329  -0.06521   0.23002   0.00000   0.15777
  55        6PY        -0.05380   0.06671  -0.14569   0.00000  -0.15027
  56        6PZ         0.00000   0.00000   0.00000  -0.03826   0.00000
  57        7PX         0.20332  -0.26840   0.82489   0.00000   0.63260
  58        7PY        -0.17899   0.30987  -0.50301   0.00000  -0.74721
  59        7PZ         0.00000   0.00000   0.00000  -0.55638   0.00000
  60        8D 0        0.00215  -0.00294   0.00913   0.00000   0.00409
  61        8D+1        0.00000   0.00000   0.00000  -0.00181   0.00000
  62        8D-1        0.00000   0.00000   0.00000   0.00218   0.00000
  63        8D+2       -0.00016   0.00197  -0.00367   0.00000  -0.00037
  64        8D-2        0.00406  -0.00424   0.01208   0.00000   0.01284
  65        9D 0        0.01739  -0.00935   0.04705   0.00000   0.05789
  66        9D+1        0.00000   0.00000   0.00000   0.06953   0.00000
  67        9D-1        0.00000   0.00000   0.00000  -0.04085   0.00000
  68        9D+2       -0.00755  -0.01094  -0.04809   0.00000  -0.01205
  69        9D-2        0.02456  -0.03236   0.09076   0.00000   0.09208
  70 3   H  1S         -0.00605   0.00488   0.01186   0.00000   0.04128
  71        2S         -0.23762  -0.25040  -0.26155   0.00000  -0.43098
  72        3S         -0.90504  -1.32219  -3.15264   0.00000  -0.74094
  73        4S         -0.83921  -3.33589  -0.81090   0.00000  -0.68773
  74        5PX         0.00321   0.00013  -0.00312   0.00000  -0.01414
  75        5PY         0.00108   0.00171  -0.00194   0.00000  -0.00853
  76        5PZ         0.00000   0.00000   0.00000   0.00037   0.00000
  77        6PX        -0.07216  -0.06365  -0.22609   0.00000  -0.16634
  78        6PY        -0.05371  -0.06642  -0.14684   0.00000  -0.16158
  79        6PZ         0.00000   0.00000   0.00000  -0.03623   0.00000
  80        7PX        -0.20099  -0.26388  -0.82667   0.00000  -0.68365
  81        7PY        -0.18070  -0.30980  -0.52132   0.00000  -0.80864
  82        7PZ         0.00000   0.00000   0.00000  -0.54448   0.00000
  83        8D 0        0.00210   0.00292   0.00892   0.00000   0.00446
  84        8D+1        0.00000   0.00000   0.00000   0.00174   0.00000
  85        8D-1        0.00000   0.00000   0.00000   0.00222   0.00000
  86        8D+2       -0.00010  -0.00187  -0.00335   0.00000  -0.00031
  87        8D-2       -0.00401  -0.00423  -0.01185   0.00000  -0.01345
  88        9D 0        0.01753   0.00940   0.04805   0.00000   0.05987
  89        9D+1        0.00000   0.00000   0.00000  -0.06773   0.00000
  90        9D-1        0.00000   0.00000   0.00000  -0.04103   0.00000
  91        9D+2       -0.00713   0.01140  -0.04617   0.00000  -0.00845
  92        9D-2       -0.02489  -0.03211  -0.09280   0.00000  -0.09721
                          11        12        13        14        15
                           V         V         V         V         V
     Eigenvalues --     0.17698   0.21851   0.23939   0.26045   0.29481
   1 1   O  1S         -0.00175  -0.00038  -0.00502   0.00000   0.00000
   2        2S          0.00327   0.00028  -0.01765   0.00000   0.00000
   3        3S          0.00149   0.00036  -0.00619   0.00000   0.00000
   4        4S         -0.06068  -0.02584   0.29509   0.00000   0.00000
   5        5S         -0.14233  -0.11061   3.02941   0.00000   0.00000
   6        6PX         0.12287   0.07675   0.00061   0.00000   0.00000
   7        6PY         0.00054   0.00084  -0.00296   0.00000   0.00000
   8        6PZ         0.00000   0.00000   0.00000  -0.00027   0.09608
   9        7PX         0.02955   0.05949   0.00051   0.00000   0.00000
  10        7PY         0.00332   0.00198  -0.01070   0.00000   0.00000
  11        7PZ         0.00000   0.00000   0.00000   0.00101   0.06108
  12        8PX        -1.48517   1.01487   0.00290   0.00000   0.00000
  13        8PY         0.00750   0.00631   0.67319   0.00000   0.00000
  14        8PZ         0.00000   0.00000   0.00000   0.00260   1.86913
  15        9PX        -3.37088   2.08464   0.00138   0.00000   0.00000
  16        9PY        -0.04776   0.01697   0.53683   0.00000   0.00000
  17        9PZ         0.00000   0.00000   0.00000  -0.00849   1.92952
  18       10D 0       -0.00005  -0.00004   0.00091   0.00000   0.00000
  19       10D+1        0.00000   0.00000   0.00000  -0.00545  -0.00020
  20       10D-1        0.00000   0.00000   0.00000   0.00002   0.00610
  21       10D+2        0.00004   0.00001  -0.00765   0.00000   0.00000
  22       10D-2       -0.00308   0.00517  -0.00010   0.00000   0.00000
  23       11D 0        0.00197   0.00053   0.00294   0.00000   0.00000
  24       11D+1        0.00000   0.00000   0.00000   0.00941   0.00210
  25       11D-1        0.00000   0.00000   0.00000  -0.00083  -0.02823
  26       11D+2       -0.00165  -0.00043   0.02996   0.00000   0.00000
  27       11D-2        0.08875   0.00828   0.00133   0.00000   0.00000
  28       12D 0        0.00006   0.00098  -0.14076   0.00000   0.00000
  29       12D+1        0.00000   0.00000   0.00000   0.67263   0.01008
  30       12D-1        0.00000   0.00000   0.00000   0.00587  -0.53782
  31       12D+2       -0.00890   0.00301   0.77733   0.00000   0.00000
  32       12D-2        0.39899  -0.70059   0.00484   0.00000   0.00000
  33       13F 0        0.00000   0.00000   0.00000  -0.00013   0.00975
  34       13F+1        0.00016   0.00580   0.00008   0.00000   0.00000
  35       13F-1       -0.00009   0.00003   0.00207   0.00000   0.00000
  36       13F+2        0.00000   0.00000   0.00000  -0.00012  -0.00067
  37       13F-2        0.00000   0.00000   0.00000   0.01154  -0.00001
  38       13F+3        0.00351   0.00607   0.00005   0.00000   0.00000
  39       13F-3        0.00019   0.00012   0.00533   0.00000   0.00000
  40       14F 0        0.00000   0.00000   0.00000   0.00026  -0.09250
  41       14F+1        0.02872  -0.04092  -0.00022   0.00000   0.00000
  42       14F-1        0.00015  -0.00034  -0.01598   0.00000   0.00000
  43       14F+2        0.00000   0.00000   0.00000   0.00106   0.02093
  44       14F-2        0.00000   0.00000   0.00000  -0.09388  -0.00135
  45       14F+3        0.00287  -0.04292   0.00125   0.00000   0.00000
  46       14F-3        0.00056  -0.00023  -0.06177   0.00000   0.00000
  47 2   H  1S         -0.01168  -0.05154  -0.03738   0.00000   0.00000
  48        2S          0.82115  -0.78501  -0.21025   0.00000   0.00000
  49        3S          4.58348  -0.77433  -1.56563   0.00000   0.00000
  50        4S          3.28198  -0.44134  -0.12702   0.00000   0.00000
  51        5PX        -0.01235  -0.00028   0.00403   0.00000   0.00000
  52        5PY         0.00677   0.00973   0.00534   0.00000   0.00000
  53        5PZ         0.00000   0.00000   0.00000   0.00047   0.00601
  54        6PX        -0.25065   0.03908  -0.15198   0.00000   0.00000
  55        6PY         0.25136  -0.00035  -0.28467   0.00000   0.00000
  56        6PZ         0.00000   0.00000   0.00000  -0.27786  -0.33479
  57        7PX        -1.17154  -1.00716  -0.80352   0.00000   0.00000
  58        7PY         1.20750   0.59808  -1.07237   0.00000   0.00000
  59        7PZ         0.00000   0.00000   0.00000  -1.74121  -1.89513
  60        8D 0       -0.01159   0.00245  -0.00352   0.00000   0.00000
  61        8D+1        0.00000   0.00000   0.00000   0.00472   0.00744
  62        8D-1        0.00000   0.00000   0.00000  -0.00287  -0.00560
  63        8D+2        0.00498  -0.00326   0.00545   0.00000   0.00000
  64        8D-2       -0.01704  -0.00032   0.01073   0.00000   0.00000
  65        9D 0       -0.02707  -0.14634   0.01099   0.00000   0.00000
  66        9D+1        0.00000   0.00000   0.00000   0.24191   0.30953
  67        9D-1        0.00000   0.00000   0.00000  -0.21381  -0.18055
  68        9D+2       -0.04038   0.03441   0.27371   0.00000   0.00000
  69        9D-2       -0.10473  -0.12606   0.03429   0.00000   0.00000
  70 3   H  1S          0.01090   0.05289  -0.03686   0.00000   0.00000
  71        2S         -0.78177   0.79355  -0.20602   0.00000   0.00000
  72        3S         -4.48521   0.88285  -1.57702   0.00000   0.00000
  73        4S         -3.23953   0.45957  -0.13327   0.00000   0.00000
  74        5PX        -0.01112  -0.00021  -0.00432   0.00000   0.00000
  75        5PY        -0.00615  -0.00974   0.00493   0.00000   0.00000
  76        5PZ         0.00000   0.00000   0.00000  -0.00031   0.00570
  77        6PX        -0.23852   0.04730   0.14918   0.00000   0.00000
  78        6PY        -0.24253   0.01123  -0.28100   0.00000   0.00000
  79        6PZ         0.00000   0.00000   0.00000   0.27454  -0.32091
  80        7PX        -1.12414  -0.97747   0.79150   0.00000   0.00000
  81        7PY        -1.16925  -0.57209  -1.08634   0.00000   0.00000
  82        7PZ         0.00000   0.00000   0.00000   1.75281  -1.85806
  83        8D 0        0.01126  -0.00273  -0.00334   0.00000   0.00000
  84        8D+1        0.00000   0.00000   0.00000   0.00451  -0.00679
  85        8D-1        0.00000   0.00000   0.00000   0.00280  -0.00520
  86        8D+2       -0.00464   0.00341   0.00517   0.00000   0.00000
  87        8D-2       -0.01624   0.00035  -0.01066   0.00000   0.00000
  88        9D 0        0.02432   0.14284   0.01277   0.00000   0.00000
  89        9D+1        0.00000   0.00000   0.00000   0.24194  -0.30107
  90        9D-1        0.00000   0.00000   0.00000   0.21653  -0.17882
  91        9D+2        0.04186  -0.03371   0.27449   0.00000   0.00000
  92        9D-2       -0.09885  -0.12228  -0.03400   0.00000   0.00000
                          16        17        18        19        20
                           V         V         V         V         V
     Eigenvalues --     0.30248   0.36284   0.40988   0.43421   0.56850
   1 1   O  1S          0.00913   0.00041  -0.07521   0.00338   0.00004
   2        2S         -0.07132  -0.00062   0.20230  -0.01237   0.00058
   3        3S         -0.04547  -0.00003   0.06821  -0.00427   0.00057
   4        4S          1.66315  -0.03039   4.89629  -0.26966  -0.00929
   5        5S          7.51791  -0.05733   9.74301  -0.53196  -0.08889
   6        6PX         0.00056  -0.01571  -0.00936  -0.20182  -0.05861
   7        6PY        -0.10438   0.00014  -0.11865   0.00415   0.00019
   8        6PZ         0.00000   0.00000   0.00000   0.00000   0.00000
   9        7PX         0.00298   0.01725  -0.01801  -0.49317   0.05953
  10        7PY        -0.20216   0.00104  -0.34241   0.01506   0.00055
  11        7PZ         0.00000   0.00000   0.00000   0.00000   0.00000
  12        8PX         0.04579  -1.22180  -0.12278  -2.60295   4.07555
  13        8PY        -2.43258  -0.01123  -0.62058   0.00995   0.01031
  14        8PZ         0.00000   0.00000   0.00000   0.00000   0.00000
  15        9PX         0.02633  -3.25064  -0.12025  -2.57705   2.66646
  16        9PY        -2.45110  -0.02268  -0.67193   0.02311   0.02979
  17        9PZ         0.00000   0.00000   0.00000   0.00000   0.00000
  18       10D 0        0.00689  -0.00004   0.00332   0.00003   0.00000
  19       10D+1        0.00000   0.00000   0.00000   0.00000   0.00000
  20       10D-1        0.00000   0.00000   0.00000   0.00000   0.00000
  21       10D+2        0.00137   0.00017  -0.00494   0.00027   0.00015
  22       10D-2       -0.00001   0.00230  -0.00072  -0.00947  -0.01139
  23       11D 0       -0.07395   0.00067  -0.05576   0.00248   0.00061
  24       11D+1        0.00000   0.00000   0.00000   0.00000   0.00000
  25       11D-1        0.00000   0.00000   0.00000   0.00000   0.00000
  26       11D+2       -0.00549  -0.00181   0.01805  -0.00308   0.00153
  27       11D-2       -0.00183  -0.00985   0.00717   0.15272  -0.25432
  28       12D 0       -0.47916   0.00001   0.30483  -0.01409   0.00013
  29       12D+1        0.00000   0.00000   0.00000   0.00000   0.00000
  30       12D-1        0.00000   0.00000   0.00000   0.00000   0.00000
  31       12D+2       -0.22208  -0.00668  -0.08648   0.00451   0.02029
  32       12D-2       -0.01803   0.14053  -0.00681  -0.13598  -2.30387
  33       13F 0        0.00000   0.00000   0.00000   0.00000   0.00000
  34       13F+1        0.00004  -0.00253   0.00036   0.01005   0.00581
  35       13F-1       -0.00445  -0.00009   0.00887  -0.00036   0.00004
  36       13F+2        0.00000   0.00000   0.00000   0.00000   0.00000
  37       13F-2        0.00000   0.00000   0.00000   0.00000   0.00000
  38       13F+3        0.00001   0.00853   0.00066   0.00912   0.00582
  39       13F-3       -0.00342   0.00022  -0.01175   0.00074   0.00020
  40       14F 0        0.00000   0.00000   0.00000   0.00000   0.00000
  41       14F+1       -0.00098   0.02289   0.00086   0.00408  -0.12515
  42       14F-1        0.07093   0.00036  -0.04117   0.00220  -0.00093
  43       14F+2        0.00000   0.00000   0.00000   0.00000   0.00000
  44       14F-2        0.00000   0.00000   0.00000   0.00000   0.00000
  45       14F+3       -0.00023  -0.06746  -0.00348  -0.05705  -0.13359
  46       14F-3       -0.03908  -0.00038   0.04743  -0.00376  -0.00165
  47 2   H  1S         -0.02219  -0.01871  -0.04939   0.05249   0.12297
  48        2S         -1.36890   0.39428  -0.18172   0.93593  -2.37065
  49        3S         -3.94544  -3.74367  -5.49699  10.11879  -8.27713
  50        4S         -0.31949   0.68502  -0.60268   1.98330  -1.11402
  51        5PX        -0.00403  -0.00539  -0.01734   0.00477   0.01304
  52        5PY        -0.00890  -0.00175   0.01265  -0.00756  -0.00526
  53        5PZ         0.00000   0.00000   0.00000   0.00000   0.00000
  54        6PX         0.48990   0.20283   0.28041  -0.38282   0.59129
  55        6PY        -0.08101   0.17333  -0.25039   0.42285  -0.43351
  56        6PZ         0.00000   0.00000   0.00000   0.00000   0.00000
  57        7PX         0.19213   4.29516   2.06678  -3.34640   1.85516
  58        7PY         0.82495   1.83925  -1.69453   2.36645  -0.39013
  59        7PZ         0.00000   0.00000   0.00000   0.00000   0.00000
  60        8D 0        0.01953  -0.00673   0.00742  -0.01883   0.01994
  61        8D+1        0.00000   0.00000   0.00000   0.00000   0.00000
  62        8D-1        0.00000   0.00000   0.00000   0.00000   0.00000
  63        8D+2       -0.01366  -0.00198   0.00304   0.00607  -0.01457
  64        8D-2        0.01850   0.01069   0.01538  -0.03087   0.02900
  65        9D 0       -0.02623   0.19307   0.19795  -0.21149  -0.18958
  66        9D+1        0.00000   0.00000   0.00000   0.00000   0.00000
  67        9D-1        0.00000   0.00000   0.00000   0.00000   0.00000
  68        9D+2       -0.09851  -0.47301  -0.13738  -0.00200  -0.08351
  69        9D-2       -0.13134  -0.15024   0.36717  -0.33980  -0.21834
  70 3   H  1S         -0.02250   0.01935  -0.05587  -0.04896  -0.12567
  71        2S         -1.30810  -0.37893  -0.25909  -0.90433   2.32745
  72        3S         -3.92132   3.80667  -6.23889  -9.46198   8.39931
  73        4S         -0.31814  -0.67678  -0.78066  -1.91522   1.12100
  74        5PX         0.00497  -0.00519   0.01742   0.00350   0.01187
  75        5PY        -0.00827   0.00165   0.01354   0.00635   0.00434
  76        5PZ         0.00000   0.00000   0.00000   0.00000   0.00000
  77        6PX        -0.48350   0.20294  -0.29885  -0.34665   0.60062
  78        6PY        -0.08521  -0.16077  -0.28345  -0.39449   0.45515
  79        6PZ         0.00000   0.00000   0.00000   0.00000   0.00000
  80        7PX        -0.23262   4.31569  -2.28565  -3.12330   1.88985
  81        7PY         0.80383  -1.74836  -1.93619  -2.22837   0.45350
  82        7PZ         0.00000   0.00000   0.00000   0.00000   0.00000
  83        8D 0        0.01915   0.00656   0.00861   0.01795  -0.02044
  84        8D+1        0.00000   0.00000   0.00000   0.00000   0.00000
  85        8D-1        0.00000   0.00000   0.00000   0.00000   0.00000
  86        8D+2       -0.01288   0.00121   0.00291  -0.00557   0.01422
  87        8D-2       -0.01859   0.01111  -0.01717  -0.02927   0.03012
  88        9D 0       -0.01988  -0.19382   0.21447   0.19221   0.18197
  89        9D+1        0.00000   0.00000   0.00000   0.00000   0.00000
  90        9D-1        0.00000   0.00000   0.00000   0.00000   0.00000
  91        9D+2       -0.10349   0.47242  -0.12297   0.01769   0.08584
  92        9D-2        0.12303  -0.13426  -0.39720  -0.30436  -0.20582
                          21        22        23        24        25
                           V         V         V         V         V
     Eigenvalues --     0.62381   0.67973   0.69523   0.70350   0.79924
   1 1   O  1S          0.00163   0.00866   0.00000   0.00000   0.03534
   2        2S         -0.09450  -0.09472   0.00000   0.00000  -0.08517
   3        3S         -0.02704  -0.03088   0.00000   0.00000  -0.00116
   4        4S          1.76897   1.66415   0.00000   0.00000  -2.20787
   5        5S          5.90571   4.04711   0.00000   0.00000   1.48284
   6        6PX        -0.00096  -0.00040   0.00000   0.00000   0.00154
   7        6PY        -0.00627   0.02821   0.00000   0.00000   0.05090
   8        6PZ         0.00000   0.00000  -0.00027   0.02101   0.00000
   9        7PX         0.00019   0.00167   0.00000   0.00000  -0.00080
  10        7PY        -0.09657  -0.08611   0.00000   0.00000   0.16968
  11        7PZ         0.00000   0.00000   0.00329   0.07256   0.00000
  12        8PX         0.01569   0.02606   0.00000   0.00000   0.01123
  13        8PY         1.06510  -2.21907   0.00000   0.00000   0.76981
  14        8PZ         0.00000   0.00000   0.01818   1.81721   0.00000
  15        9PX         0.00867   0.00876   0.00000   0.00000   0.00180
  16        9PY        -0.56738  -1.83605   0.00000   0.00000  -0.58843
  17        9PZ         0.00000   0.00000   0.00732   1.45084   0.00000
  18       10D 0       -0.01789  -0.02606   0.00000   0.00000  -0.00180
  19       10D+1        0.00000   0.00000   0.01582  -0.00002   0.00000
  20       10D-1        0.00000   0.00000   0.00011  -0.02837   0.00000
  21       10D+2        0.00673  -0.00759   0.00000   0.00000   0.00436
  22       10D-2       -0.00025  -0.00014   0.00000   0.00000  -0.00006
  23       11D 0       -0.02850  -0.00098   0.00000   0.00000   0.04340
  24       11D+1        0.00000   0.00000   0.11112   0.00121   0.00000
  25       11D-1        0.00000   0.00000  -0.00121  -0.00038   0.00000
  26       11D+2        0.15310  -0.05285   0.00000   0.00000  -0.11420
  27       11D-2        0.00229  -0.00220   0.00000   0.00000  -0.00229
  28       12D 0       -0.56130  -0.84965   0.00000   0.00000   0.69358
  29       12D+1        0.00000   0.00000   2.02160   0.00130   0.00000
  30       12D-1        0.00000   0.00000   0.00786  -1.42414   0.00000
  31       12D+2        1.62796  -1.27363   0.00000   0.00000  -1.28569
  32       12D-2       -0.00015  -0.02551   0.00000   0.00000  -0.05077
  33       13F 0        0.00000   0.00000  -0.00012   0.01488   0.00000
  34       13F+1        0.00017   0.00001   0.00000   0.00000   0.00031
  35       13F-1        0.00687  -0.00356   0.00000   0.00000   0.00031
  36       13F+2        0.00000   0.00000  -0.00028  -0.01291   0.00000
  37       13F-2        0.00000   0.00000   0.02286  -0.00025   0.00000
  38       13F+3        0.00020  -0.00004   0.00000   0.00000   0.00060
  39       13F-3        0.00245  -0.00122   0.00000   0.00000  -0.02892
  40       14F 0        0.00000   0.00000  -0.00043  -0.12983   0.00000
  41       14F+1       -0.00082  -0.00073   0.00000   0.00000  -0.00180
  42       14F-1       -0.03299   0.05984   0.00000   0.00000  -0.01879
  43       14F+2        0.00000   0.00000   0.00301   0.06594   0.00000
  44       14F-2        0.00000   0.00000  -0.24279   0.00106   0.00000
  45       14F+3        0.00173  -0.00125   0.00000   0.00000  -0.00916
  46       14F-3       -0.11250   0.02549   0.00000   0.00000   0.28867
  47 2   H  1S          0.08427   0.06485   0.00000   0.00000   0.09137
  48        2S         -0.04397  -0.61859   0.00000   0.00000   2.44245
  49        3S         -3.84209  -2.59135   0.00000   0.00000  -1.39537
  50        4S         -0.18366  -0.09153   0.00000   0.00000  -0.00203
  51        5PX         0.01894  -0.02768   0.00000   0.00000  -0.02378
  52        5PY         0.03509  -0.02210   0.00000   0.00000   0.01333
  53        5PZ         0.00000   0.00000   0.03837   0.03185   0.00000
  54        6PX        -0.00607   0.54247   0.00000   0.00000   0.10528
  55        6PY        -0.59538   0.12527   0.00000   0.00000   0.39930
  56        6PZ         0.00000   0.00000  -0.60374  -0.41341   0.00000
  57        7PX        -0.23589   0.60825   0.00000   0.00000   0.44084
  58        7PY        -1.15006   0.82695   0.00000   0.00000   0.10485
  59        7PZ         0.00000   0.00000  -1.66382  -1.39468   0.00000
  60        8D 0        0.00034   0.02072   0.00000   0.00000   0.00195
  61        8D+1        0.00000   0.00000   0.01589   0.00727   0.00000
  62        8D-1        0.00000   0.00000  -0.01079   0.00180   0.00000
  63        8D+2        0.00806  -0.00678   0.00000   0.00000  -0.03454
  64        8D-2        0.02513   0.00197   0.00000   0.00000  -0.00774
  65        9D 0        0.00882  -0.14196   0.00000   0.00000   0.13624
  66        9D+1        0.00000   0.00000   0.66520   0.28118   0.00000
  67        9D-1        0.00000   0.00000  -0.48000  -0.45913   0.00000
  68        9D+2        0.56590  -0.49239   0.00000   0.00000  -0.06135
  69        9D-2        0.12379  -0.01566   0.00000   0.00000  -0.33548
  70 3   H  1S          0.08278   0.06424   0.00000   0.00000   0.09131
  71        2S         -0.00909  -0.57249   0.00000   0.00000   2.50954
  72        3S         -3.84047  -2.59773   0.00000   0.00000  -1.42146
  73        4S         -0.18293  -0.09751   0.00000   0.00000   0.00081
  74        5PX        -0.01928   0.02860   0.00000   0.00000   0.02486
  75        5PY         0.03488  -0.02113   0.00000   0.00000   0.01362
  76        5PZ         0.00000   0.00000  -0.03808   0.03181   0.00000
  77        6PX         0.00663  -0.53332   0.00000   0.00000  -0.09679
  78        6PY        -0.58502   0.11726   0.00000   0.00000   0.38864
  79        6PZ         0.00000   0.00000   0.58869  -0.40816   0.00000
  80        7PX         0.22387  -0.63134   0.00000   0.00000  -0.44620
  81        7PY        -1.16695   0.80440   0.00000   0.00000   0.07225
  82        7PZ         0.00000   0.00000   1.64908  -1.39595   0.00000
  83        8D 0        0.00052   0.02038   0.00000   0.00000   0.00185
  84        8D+1        0.00000   0.00000   0.01527  -0.00728   0.00000
  85        8D-1        0.00000   0.00000   0.01076   0.00215   0.00000
  86        8D+2        0.00777  -0.00600   0.00000   0.00000  -0.03344
  87        8D-2       -0.02464  -0.00159   0.00000   0.00000   0.00662
  88        9D 0        0.01229  -0.13984   0.00000   0.00000   0.14218
  89        9D+1        0.00000   0.00000   0.66071  -0.27885   0.00000
  90        9D-1        0.00000   0.00000   0.48203  -0.46663   0.00000
  91        9D+2        0.56859  -0.49428   0.00000   0.00000  -0.06561
  92        9D-2       -0.12468   0.00231   0.00000   0.00000   0.32833
                          26        27        28        29        30
                           V         V         V         V         V
     Eigenvalues --     0.82142   0.84989   0.88473   0.88587   0.90198
   1 1   O  1S          0.00000  -0.05252   0.00057   0.00000   0.00000
   2        2S          0.00000   0.02237   0.00057   0.00000   0.00000
   3        3S          0.00000  -0.07276  -0.00013   0.00000   0.00000
   4        4S          0.00000   9.39223   0.04585   0.00000   0.00000
   5        5S          0.00000   9.03954   0.05492   0.00000   0.00000
   6        6PX         0.00000  -0.00269   0.11270   0.00000   0.00000
   7        6PY         0.00000   0.27177   0.00196   0.00000   0.00000
   8        6PZ        -0.15817   0.00000   0.00000  -0.17793   0.00085
   9        7PX         0.00000   0.01000   0.18520   0.00000   0.00000
  10        7PY         0.00000  -0.03510   0.00191   0.00000   0.00000
  11        7PZ        -0.30191   0.00000   0.00000  -0.42827   0.00362
  12        8PX         0.00000   0.15962   0.95750   0.00000   0.00000
  13        8PY         0.00000  -6.53517   0.00022   0.00000   0.00000
  14        8PZ         3.75076   0.00000   0.00000   2.12749  -0.02827
  15        9PX         0.00000   0.03143  -0.27691   0.00000   0.00000
  16        9PY         0.00000  -1.14081  -0.00279   0.00000   0.00000
  17        9PZ         0.75077   0.00000   0.00000   0.07236  -0.00578
  18       10D 0        0.00000   0.01994   0.00042   0.00000   0.00000
  19       10D+1       -0.00037   0.00000   0.00000  -0.00066  -0.02679
  20       10D-1        0.01487   0.00000   0.00000   0.02334  -0.00046
  21       10D+2        0.00000   0.01005   0.00039   0.00000   0.00000
  22       10D-2        0.00000  -0.00009  -0.00631   0.00000   0.00000
  23       11D 0        0.00000  -0.38223  -0.00111   0.00000   0.00000
  24       11D+1        0.00455   0.00000   0.00000   0.00458   0.12637
  25       11D-1       -0.14180   0.00000   0.00000  -0.12554   0.00209
  26       11D+2        0.00000   0.08282  -0.00151   0.00000   0.00000
  27       11D-2        0.00000  -0.00472   0.02435   0.00000   0.00000
  28       12D 0        0.00000  -1.47940   0.03028   0.00000   0.00000
  29       12D+1        0.00957   0.00000   0.00000   0.00385   0.18169
  30       12D-1       -1.36479   0.00000   0.00000   0.62607   0.00293
  31       12D+2        0.00000   0.04323   0.02340   0.00000   0.00000
  32       12D-2        0.00000  -0.03979  -1.48583   0.00000   0.00000
  33       13F 0        0.01933   0.00000   0.00000   0.00418  -0.00030
  34       13F+1        0.00000  -0.00014   0.02717   0.00000   0.00000
  35       13F-1        0.00000  -0.00663   0.00045   0.00000   0.00000
  36       13F+2        0.01610   0.00000   0.00000  -0.03070   0.00016
  37       13F-2       -0.00001   0.00000   0.00000  -0.00047   0.00091
  38       13F+3        0.00000   0.00001   0.01029   0.00000   0.00000
  39       13F-3        0.00000  -0.02007   0.00051   0.00000   0.00000
  40       14F 0       -0.18880   0.00000   0.00000  -0.08073   0.00227
  41       14F+1        0.00000  -0.00227  -0.13602   0.00000   0.00000
  42       14F-1        0.00000   0.20037  -0.00287   0.00000   0.00000
  43       14F+2       -0.04587   0.00000   0.00000   0.17240  -0.00119
  44       14F-2       -0.00204   0.00000   0.00000   0.00031  -0.01874
  45       14F+3        0.00000   0.00333  -0.12710   0.00000   0.00000
  46       14F-3        0.00000  -0.19190  -0.00338   0.00000   0.00000
  47 2   H  1S          0.00000   0.05701  -0.03615   0.00000   0.00000
  48        2S          0.00000  -4.82475  -1.95248   0.00000   0.00000
  49        3S          0.00000  -5.46821   1.06140   0.00000   0.00000
  50        4S          0.00000  -0.40125  -0.03523   0.00000   0.00000
  51        5PX         0.00000   0.03127   0.00993   0.00000   0.00000
  52        5PY         0.00000  -0.04924  -0.00657   0.00000   0.00000
  53        5PZ         0.03571   0.00000   0.00000  -0.00219   0.00148
  54        6PX         0.00000   1.62578  -0.00775   0.00000   0.00000
  55        6PY         0.00000  -0.75241   0.23902   0.00000   0.00000
  56        6PZ        -0.64004   0.00000   0.00000  -0.23989  -0.03304
  57        7PX         0.00000   1.00389  -0.04998   0.00000   0.00000
  58        7PY         0.00000  -0.24187   0.48528   0.00000   0.00000
  59        7PZ        -1.37296   0.00000   0.00000  -0.57633  -0.54678
  60        8D 0        0.00000   0.04816  -0.03217   0.00000   0.00000
  61        8D+1        0.00765   0.00000   0.00000   0.02806   0.00130
  62        8D-1       -0.02202   0.00000   0.00000  -0.00509   0.02828
  63        8D+2        0.00000  -0.03190  -0.01550   0.00000   0.00000
  64        8D-2        0.00000   0.08064  -0.01472   0.00000   0.00000
  65        9D 0        0.00000   0.21028   0.48673   0.00000   0.00000
  66        9D+1        1.11412   0.00000   0.00000  -0.07097   0.44391
  67        9D-1       -0.23061   0.00000   0.00000  -0.79961  -0.92546
  68        9D+2        0.00000  -0.28633   0.02465   0.00000   0.00000
  69        9D-2        0.00000  -0.13755  -0.09929   0.00000   0.00000
  70 3   H  1S          0.00000   0.05907   0.03600   0.00000   0.00000
  71        2S          0.00000  -4.61094   1.98369   0.00000   0.00000
  72        3S          0.00000  -5.37436  -1.15370   0.00000   0.00000
  73        4S          0.00000  -0.39000   0.02859   0.00000   0.00000
  74        5PX         0.00000  -0.02713   0.01028   0.00000   0.00000
  75        5PY         0.00000  -0.04762   0.00752   0.00000   0.00000
  76        5PZ         0.03551   0.00000   0.00000  -0.00219  -0.00154
  77        6PX         0.00000  -1.59807   0.00247   0.00000   0.00000
  78        6PY         0.00000  -0.74979  -0.24134   0.00000   0.00000
  79        6PZ        -0.61812   0.00000   0.00000  -0.22298   0.03668
  80        7PX         0.00000  -1.03908  -0.09068   0.00000   0.00000
  81        7PY         0.00000  -0.23000  -0.51336   0.00000   0.00000
  82        7PZ        -1.35779   0.00000   0.00000  -0.55603   0.56889
  83        8D 0        0.00000   0.04645   0.03257   0.00000   0.00000
  84        8D+1       -0.00597   0.00000   0.00000  -0.02734   0.00179
  85        8D-1       -0.02154   0.00000   0.00000  -0.00484  -0.02853
  86        8D+2        0.00000  -0.02944   0.01695   0.00000   0.00000
  87        8D-2        0.00000  -0.07994  -0.01353   0.00000   0.00000
  88        9D 0        0.00000   0.22897  -0.50057   0.00000   0.00000
  89        9D+1       -1.10490   0.00000   0.00000   0.09292   0.44446
  90        9D-1       -0.23477   0.00000   0.00000  -0.77737   0.94875
  91        9D+2        0.00000  -0.31073  -0.04530   0.00000   0.00000
  92        9D-2        0.00000   0.12496  -0.13260   0.00000   0.00000
                          31        32        33        34        35
                           V         V         V         V         V
     Eigenvalues --     0.90731   0.93516   0.98450   0.99476   1.03870
   1 1   O  1S          0.00005   0.04768   0.09518  -0.01082   0.00000
   2        2S          0.00114  -0.04273  -0.12294   0.00921   0.00000
   3        3S          0.00055  -0.00481  -0.05233   0.00415   0.00000
   4        4S         -0.02295   0.20711   5.56940  -0.57579   0.00000
   5        5S         -0.06056   3.46640   4.55938  -0.53734   0.00000
   6        6PX        -0.11878  -0.00025   0.02154   0.24078   0.00000
   7        6PY        -0.00356   0.08202   0.09091  -0.01002   0.00000
   8        6PZ         0.00000   0.00000   0.00000   0.00000   0.15951
   9        7PX        -0.00281  -0.00752  -0.01278  -0.15331   0.00000
  10        7PY        -0.00199   0.13595  -0.13520   0.01136   0.00000
  11        7PZ         0.00000   0.00000   0.00000   0.00000   0.51688
  12        8PX         6.20296   0.02643   0.11523   1.48841   0.00000
  13        8PY         0.06065   0.76744   1.32862  -0.12269   0.00000
  14        8PZ         0.00000   0.00000   0.00000   0.00000   0.09433
  15        9PX         3.05650   0.02210  -0.02419  -0.34684   0.00000
  16        9PY         0.02651  -0.34695   0.08754  -0.00066   0.00000
  17        9PZ         0.00000   0.00000   0.00000   0.00000   0.30739
  18       10D 0       -0.00022   0.01164  -0.00268   0.00024   0.00000
  19       10D+1        0.00000   0.00000   0.00000   0.00000   0.00007
  20       10D-1        0.00000   0.00000   0.00000   0.00000   0.01290
  21       10D+2       -0.00033   0.01532  -0.00663   0.00020   0.00000
  22       10D-2        0.00203   0.00040   0.00023   0.00702   0.00000
  23       11D 0        0.00118  -0.03117  -0.01640   0.00253   0.00000
  24       11D+1        0.00000   0.00000   0.00000   0.00000  -0.00176
  25       11D-1        0.00000   0.00000   0.00000   0.00000  -0.03519
  26       11D+2        0.00447  -0.04615   0.08430  -0.00849   0.00000
  27       11D-2       -0.09901   0.00076   0.02074   0.18862   0.00000
  28       12D 0       -0.00570   2.05169   0.46630  -0.06646   0.00000
  29       12D+1        0.00000   0.00000   0.00000   0.00000  -0.01474
  30       12D-1        0.00000   0.00000   0.00000   0.00000   0.75917
  31       12D+2        0.00591   0.04274  -0.17754   0.04429   0.00000
  32       12D-2       -0.94991  -0.01270  -0.20518  -2.23645   0.00000
  33       13F 0        0.00000   0.00000   0.00000   0.00000   0.00341
  34       13F+1        0.00640  -0.00046   0.00153   0.01560   0.00000
  35       13F-1       -0.00001   0.02162   0.00125  -0.00014   0.00000
  36       13F+2        0.00000   0.00000   0.00000   0.00000  -0.01104
  37       13F-2        0.00000   0.00000   0.00000   0.00000  -0.00034
  38       13F+3       -0.02113  -0.00009   0.00207   0.01947   0.00000
  39       13F-3       -0.00052   0.00790  -0.01101   0.00133   0.00000
  40       14F 0        0.00000   0.00000   0.00000   0.00000   0.03573
  41       14F+1       -0.11967   0.00186  -0.00839  -0.09502   0.00000
  42       14F-1       -0.00059  -0.15489  -0.05622   0.00584   0.00000
  43       14F+2        0.00000   0.00000   0.00000   0.00000   0.04079
  44       14F-2        0.00000   0.00000   0.00000   0.00000   0.00452
  45       14F+3        0.21516   0.00127  -0.01087  -0.10807   0.00000
  46       14F-3        0.00411   0.03037   0.12271  -0.01471   0.00000
  47 2   H  1S          0.05343   0.04006   0.08246  -0.13398   0.00000
  48        2S         -2.32963   2.24744   0.75496  -2.05664   0.00000
  49        3S         -2.58119  -2.78594  -3.42499   8.03901   0.00000
  50        4S         -0.91026  -0.16013  -0.20484   0.82422   0.00000
  51        5PX         0.03807  -0.01782  -0.01650   0.02881   0.00000
  52        5PY         0.02549   0.02278   0.02753   0.00614   0.00000
  53        5PZ         0.00000   0.00000   0.00000   0.00000  -0.01469
  54        6PX         0.01796  -0.07844   0.25486  -0.68811   0.00000
  55        6PY        -0.86378  -0.13131  -0.32939   0.50253   0.00000
  56        6PZ         0.00000   0.00000   0.00000   0.00000   0.32288
  57        7PX        -1.69996   1.03145   1.45698  -3.75767   0.00000
  58        7PY        -2.63885  -0.61969  -1.69479   1.55474   0.00000
  59        7PZ         0.00000   0.00000   0.00000   0.00000  -0.28985
  60        8D 0        0.02548   0.01654  -0.00859  -0.01609   0.00000
  61        8D+1        0.00000   0.00000   0.00000   0.00000  -0.03591
  62        8D-1        0.00000   0.00000   0.00000   0.00000   0.03244
  63        8D+2        0.00369   0.01820  -0.00097   0.00476   0.00000
  64        8D-2        0.01320  -0.00904   0.00331  -0.05059   0.00000
  65        9D 0       -0.22613  -0.56131   0.79048  -1.19059   0.00000
  66        9D+1        0.00000   0.00000   0.00000   0.00000   0.44129
  67        9D-1        0.00000   0.00000   0.00000   0.00000  -0.72699
  68        9D+2        1.48803  -0.52069   0.06161   0.58293   0.00000
  69        9D-2        0.65993   0.54864   1.03738  -1.01285   0.00000
  70 3   H  1S         -0.05544   0.04036   0.10432   0.11419   0.00000
  71        2S          2.30375   2.24860   1.09659   1.83908   0.00000
  72        3S          2.66689  -2.89284  -4.82906  -7.09737   0.00000
  73        4S          0.91716  -0.16857  -0.35047  -0.76315   0.00000
  74        5PX         0.03716   0.01815   0.02146   0.02540   0.00000
  75        5PY        -0.02596   0.02183   0.02571  -0.01063   0.00000
  76        5PZ         0.00000   0.00000   0.00000   0.00000  -0.01476
  77        6PX         0.03162   0.07392  -0.36366  -0.58966   0.00000
  78        6PY         0.86344  -0.11708  -0.40156  -0.41838   0.00000
  79        6PZ         0.00000   0.00000   0.00000   0.00000   0.30353
  80        7PX        -1.67597  -1.13524  -2.12680  -3.36201   0.00000
  81        7PY         2.63370  -0.61779  -1.95119  -1.23022   0.00000
  82        7PZ         0.00000   0.00000   0.00000   0.00000  -0.29804
  83        8D 0       -0.02552   0.01528  -0.00633   0.01613   0.00000
  84        8D+1        0.00000   0.00000   0.00000   0.00000   0.03450
  85        8D-1        0.00000   0.00000   0.00000   0.00000   0.03158
  86        8D+2       -0.00305   0.01763  -0.00184  -0.00259   0.00000
  87        8D-2        0.01344   0.00924  -0.01197  -0.04827   0.00000
  88        9D 0        0.21945  -0.50298   1.00230   1.02894   0.00000
  89        9D+1        0.00000   0.00000   0.00000   0.00000  -0.44150
  90        9D-1        0.00000   0.00000   0.00000   0.00000  -0.72326
  91        9D+2       -1.48964  -0.53633  -0.03471  -0.55366   0.00000
  92        9D-2        0.64199  -0.56758  -1.19670  -0.80383   0.00000
                          36        37        38        39        40
                           V         V         V         V         V
     Eigenvalues --     1.09318   1.14944   1.15569   1.22250   1.44937
   1 1   O  1S         -0.00005  -0.01787   0.00000   0.00114   0.00000
   2        2S         -0.00133   0.08047   0.00000   0.00206   0.00000
   3        3S         -0.00028  -0.00897   0.00000   0.00212   0.00000
   4        4S         -0.00837   2.00427   0.00000   0.04247   0.00000
   5        5S          0.00736   1.17092   0.00000   0.01117   0.00000
   6        6PX        -0.01176  -0.00256   0.00000  -0.12697   0.00000
   7        6PY         0.00000   0.07924   0.00000  -0.00345   0.00000
   8        6PZ         0.00000   0.00000   0.00039   0.00000  -0.00107
   9        7PX        -0.16797   0.00514   0.00000   0.30535   0.00000
  10        7PY         0.00038   0.08992   0.00000  -0.00968   0.00000
  11        7PZ         0.00000   0.00000   0.00256   0.00000   0.00430
  12        8PX        -0.03648   0.20746   0.00000  12.08922   0.00000
  13        8PY         0.00075   0.15415   0.00000   0.06588   0.00000
  14        8PZ         0.00000   0.00000  -0.00261   0.00000  -0.11283
  15        9PX        -0.09105   0.03875   0.00000   2.15516   0.00000
  16        9PY        -0.00354  -0.03536   0.00000   0.01322   0.00000
  17        9PZ         0.00000   0.00000   0.00201   0.00000  -0.01585
  18       10D 0        0.00013   0.01161   0.00000  -0.00058   0.00000
  19       10D+1        0.00000   0.00000  -0.02360   0.00000  -0.04054
  20       10D-1        0.00000   0.00000  -0.00005   0.00000  -0.00064
  21       10D+2        0.00001  -0.03741   0.00000   0.00011   0.00000
  22       10D-2       -0.00076   0.00036   0.00000   0.05555   0.00000
  23       11D 0       -0.00071  -0.12982   0.00000   0.00442   0.00000
  24       11D+1        0.00000   0.00000   0.08748   0.00000   0.04420
  25       11D-1        0.00000   0.00000   0.00041   0.00000  -0.00312
  26       11D+2        0.00094   0.14984   0.00000   0.00276   0.00000
  27       11D-2        0.06052  -0.00807   0.00000  -0.64925   0.00000
  28       12D 0       -0.00078   0.15218   0.00000   0.00727   0.00000
  29       12D+1        0.00000   0.00000  -1.24234   0.00000   2.75087
  30       12D-1        0.00000   0.00000  -0.00877   0.00000   0.06863
  31       12D+2       -0.03216   0.21965   0.00000   0.05155   0.00000
  32       12D-2        2.00469  -0.07838   0.00000  -4.95156   0.00000
  33       13F 0        0.00000   0.00000  -0.00013   0.00000  -0.00049
  34       13F+1        0.01516  -0.00015   0.00000  -0.00546   0.00000
  35       13F-1       -0.00009   0.01286   0.00000  -0.00001   0.00000
  36       13F+2        0.00000   0.00000   0.00033   0.00000  -0.00005
  37       13F-2        0.00000   0.00000   0.00932   0.00000   0.02687
  38       13F+3       -0.02774   0.00024   0.00000   0.00179   0.00000
  39       13F-3       -0.00091   0.00138   0.00000  -0.00007   0.00000
  40       14F 0        0.00000   0.00000   0.00116   0.00000   0.00276
  41       14F+1       -0.07649  -0.00367   0.00000  -0.25483   0.00000
  42       14F-1        0.00015  -0.00780   0.00000  -0.00395   0.00000
  43       14F+2        0.00000   0.00000  -0.00150   0.00000   0.00146
  44       14F-2        0.00000   0.00000  -0.04117   0.00000  -0.34969
  45       14F+3        0.31050  -0.00342   0.00000  -0.25870   0.00000
  46       14F-3        0.00723  -0.09593   0.00000   0.00136   0.00000
  47 2   H  1S         -0.00942  -0.03782   0.00000  -0.08672   0.00000
  48        2S          1.87978  -1.56865   0.00000  -8.98428   0.00000
  49        3S         -1.63637  -0.83638   0.00000 -10.38265   0.00000
  50        4S          0.07984  -0.02679   0.00000  -0.83853   0.00000
  51        5PX        -0.01753   0.01135   0.00000   0.09231   0.00000
  52        5PY         0.00123  -0.02077   0.00000  -0.04328   0.00000
  53        5PZ         0.00000   0.00000  -0.01304   0.00000   0.04727
  54        6PX        -0.40851   0.44666   0.00000   1.75068   0.00000
  55        6PY        -0.38541  -0.49114   0.00000  -1.09557   0.00000
  56        6PZ         0.00000   0.00000   0.06936   0.00000  -2.19854
  57        7PX         0.52034  -0.50149   0.00000   2.53198   0.00000
  58        7PY         0.01799  -0.37862   0.00000  -0.70816   0.00000
  59        7PZ         0.00000   0.00000  -0.41378   0.00000  -1.20298
  60        8D 0       -0.01360   0.03700   0.00000   0.06634   0.00000
  61        8D+1        0.00000   0.00000  -0.03651   0.00000   0.05439
  62        8D-1        0.00000   0.00000  -0.03558   0.00000  -0.03766
  63        8D+2        0.02844  -0.02791   0.00000  -0.04972   0.00000
  64        8D-2        0.02957   0.01912   0.00000   0.11100   0.00000
  65        9D 0        0.61567  -0.47575   0.00000  -0.40145   0.00000
  66        9D+1        0.00000   0.00000   1.34363   0.00000   0.79354
  67        9D-1        0.00000   0.00000   0.65492   0.00000  -0.98161
  68        9D+2        0.73432   1.18891   0.00000  -0.45244   0.00000
  69        9D-2       -1.00320   0.37083   0.00000  -0.54005   0.00000
  70 3   H  1S          0.01121  -0.03415   0.00000   0.08354   0.00000
  71        2S         -1.85475  -1.26977   0.00000   8.99436   0.00000
  72        3S          1.62273  -0.49060   0.00000  10.34542   0.00000
  73        4S         -0.08071   0.00227   0.00000   0.83703   0.00000
  74        5PX        -0.01690  -0.00784   0.00000   0.08956   0.00000
  75        5PY        -0.00159  -0.01899   0.00000   0.04435   0.00000
  76        5PZ         0.00000   0.00000   0.01277   0.00000  -0.05224
  77        6PX        -0.41816  -0.39387   0.00000   1.79020   0.00000
  78        6PY         0.37811  -0.46266   0.00000   1.14619   0.00000
  79        6PZ         0.00000   0.00000  -0.06388   0.00000   2.29454
  80        7PX         0.51079   0.57999   0.00000   2.51143   0.00000
  81        7PY        -0.00723  -0.35091   0.00000   0.74924   0.00000
  82        7PZ         0.00000   0.00000   0.41108   0.00000   1.25915
  83        8D 0        0.01434   0.03545   0.00000  -0.06905   0.00000
  84        8D+1        0.00000   0.00000  -0.03663   0.00000   0.05486
  85        8D-1        0.00000   0.00000   0.03558   0.00000   0.03840
  86        8D+2       -0.02937  -0.02642   0.00000   0.04909   0.00000
  87        8D-2        0.02888  -0.01636   0.00000   0.11429   0.00000
  88        9D 0       -0.60842  -0.46168   0.00000   0.41369   0.00000
  89        9D+1        0.00000   0.00000   1.34140   0.00000   0.84144
  90        9D-1        0.00000   0.00000  -0.63715   0.00000   1.02522
  91        9D+2       -0.72009   1.20097   0.00000   0.42613   0.00000
  92        9D-2       -1.01058  -0.37688   0.00000  -0.51533   0.00000
                          41        42        43        44        45
                           V         V         V         V         V
     Eigenvalues --     1.48743   1.51591   1.71115   1.73477   1.87743
   1 1   O  1S          0.00965   0.00000   0.00418   0.00008   0.00252
   2        2S         -0.22322   0.00000  -0.55260   0.02124  -0.03724
   3        3S         -0.08509   0.00000  -0.27481   0.01006  -0.01478
   4        4S          2.78338   0.00000  15.64551  -0.50349  -0.06686
   5        5S          1.99073   0.00000   9.07833  -0.32353  -0.09008
   6        6PX         0.00042   0.00000   0.00538   0.09819   0.21313
   7        6PY         0.04716   0.00000  -0.12780   0.00628   0.00794
   8        6PZ         0.00000   0.10395   0.00000   0.00000   0.00000
   9        7PX         0.00604   0.00000   0.05183   0.44035   1.03014
  10        7PY        -0.07414   0.00000  -1.31951   0.05419   0.01261
  11        7PZ         0.00000   0.29109   0.00000   0.00000   0.00000
  12        8PX        -0.02126   0.00000   0.42466   8.93199  -3.43804
  13        8PY         2.99623   0.00000  -6.28225   0.26409  -0.04920
  14        8PZ         0.00000   5.07914   0.00000   0.00000   0.00000
  15        9PX        -0.00163   0.00000   0.08597   1.96147   0.44454
  16        9PY         0.39358   0.00000  -1.42114   0.06700   0.01230
  17        9PZ         0.00000   0.80588   0.00000   0.00000   0.00000
  18       10D 0        0.00159   0.00000   0.01835  -0.00062  -0.00089
  19       10D+1        0.00000  -0.00166   0.00000   0.00000   0.00000
  20       10D-1        0.00000   0.02700   0.00000   0.00000   0.00000
  21       10D+2       -0.04348   0.00000  -0.00418  -0.00045   0.00066
  22       10D-2       -0.00100   0.00000  -0.00125  -0.00414   0.01154
  23       11D 0       -0.05163   0.00000  -0.03683  -0.00206  -0.01324
  24       11D+1        0.00000   0.00409   0.00000   0.00000   0.00000
  25       11D-1        0.00000   0.04594   0.00000   0.00000   0.00000
  26       11D+2        0.09994   0.00000   0.19018  -0.00243  -0.00031
  27       11D-2        0.00493   0.00000  -0.00479  -0.06518   0.40485
  28       12D 0       -0.41580   0.00000  -1.40102   0.05462  -0.01428
  29       12D+1        0.00000   0.07989   0.00000   0.00000   0.00000
  30       12D-1        0.00000  -2.03890   0.00000   0.00000   0.00000
  31       12D+2        3.32082   0.00000  -0.23456   0.02331  -0.02174
  32       12D-2        0.04823   0.00000  -0.08267  -1.85781   1.88434
  33       13F 0        0.00000   0.01297   0.00000   0.00000   0.00000
  34       13F+1       -0.00003   0.00000  -0.00088  -0.00086   0.03625
  35       13F-1        0.00922   0.00000   0.03462  -0.00115   0.00303
  36       13F+2        0.00000  -0.00838   0.00000   0.00000   0.00000
  37       13F-2        0.00000   0.00054   0.00000   0.00000   0.00000
  38       13F+3        0.00020   0.00000  -0.00050  -0.02571   0.02437
  39       13F-3        0.00012   0.00000  -0.05848   0.00166  -0.00356
  40       14F 0        0.00000  -0.16603   0.00000   0.00000   0.00000
  41       14F+1        0.00081   0.00000   0.00080  -0.05402  -0.10672
  42       14F-1       -0.07934   0.00000  -0.09264   0.00295  -0.01373
  43       14F+2        0.00000   0.11272   0.00000   0.00000   0.00000
  44       14F-2        0.00000  -0.01092   0.00000   0.00000   0.00000
  45       14F+3        0.00885   0.00000   0.01227   0.27534  -0.05231
  46       14F-3       -0.19872   0.00000   0.03718   0.00004   0.01453
  47 2   H  1S         -0.07369   0.00000  -0.10323  -0.01800  -0.17940
  48        2S         -0.47560   0.00000  -6.37135  -4.14887   2.11033
  49        3S         -1.56747   0.00000  -6.74319  -2.35841  -4.03615
  50        4S         -0.07644   0.00000  -0.31925  -0.50901  -0.44567
  51        5PX         0.05154   0.00000   0.00531   0.02720  -0.09503
  52        5PY         0.03787   0.00000  -0.02433   0.04987   0.05782
  53        5PZ         0.00000   0.07542   0.00000   0.00000   0.00000
  54        6PX        -1.13726   0.00000   2.91998  -0.92559   1.68299
  55        6PY        -2.24025   0.00000  -1.51900  -2.50595  -0.63921
  56        6PZ         0.00000  -2.33506   0.00000   0.00000   0.00000
  57        7PX        -0.21727   0.00000   1.24110  -1.04089   1.73135
  58        7PY        -1.21213   0.00000  -0.71255  -1.89328  -0.64351
  59        7PZ         0.00000  -1.35100   0.00000   0.00000   0.00000
  60        8D 0       -0.01533   0.00000   0.12682   0.03685   0.00065
  61        8D+1        0.00000   0.03977   0.00000   0.00000   0.00000
  62        8D-1        0.00000  -0.01980   0.00000   0.00000   0.00000
  63        8D+2        0.07365   0.00000  -0.04335   0.02790  -0.01417
  64        8D-2        0.08203   0.00000   0.16039   0.01885   0.01262
  65        9D 0        0.33964   0.00000   0.01257  -0.54995   0.97253
  66        9D+1        0.00000   1.12451   0.00000   0.00000   0.00000
  67        9D-1        0.00000  -0.77172   0.00000   0.00000   0.00000
  68        9D+2        0.72682   0.00000  -0.20063   1.57255  -0.46799
  69        9D-2        0.13010   0.00000   0.18300   0.85463   0.84055
  70 3   H  1S         -0.07398   0.00000  -0.10133   0.02646   0.19261
  71        2S         -0.50440   0.00000  -5.86189   4.51081  -2.20154
  72        3S         -1.58465   0.00000  -6.46177   2.83133   4.21722
  73        4S         -0.07633   0.00000  -0.27649   0.53021   0.45335
  74        5PX        -0.05317   0.00000   0.00088   0.02628  -0.10151
  75        5PY         0.03765   0.00000  -0.02467  -0.05060  -0.06389
  76        5PZ         0.00000   0.07378   0.00000   0.00000   0.00000
  77        6PX         1.13512   0.00000  -2.92795  -0.72479   1.69862
  78        6PY        -2.21056   0.00000  -1.32517   2.59371   0.69744
  79        6PZ         0.00000  -2.19606   0.00000   0.00000   0.00000
  80        7PX         0.21476   0.00000  -1.30719  -0.95215   1.79649
  81        7PY        -1.20508   0.00000  -0.57782   1.92548   0.71566
  82        7PZ         0.00000  -1.27576   0.00000   0.00000   0.00000
  83        8D 0       -0.01518   0.00000   0.12037  -0.04556   0.00702
  84        8D+1        0.00000  -0.03499   0.00000   0.00000   0.00000
  85        8D-1        0.00000  -0.01648   0.00000   0.00000   0.00000
  86        8D+2        0.07256   0.00000  -0.04090  -0.02330   0.00885
  87        8D-2       -0.07981   0.00000  -0.15426   0.02857  -0.00042
  88        9D 0        0.33626   0.00000   0.05835   0.53528  -1.02015
  89        9D+1        0.00000  -1.07259   0.00000   0.00000   0.00000
  90        9D-1        0.00000  -0.73608   0.00000   0.00000   0.00000
  91        9D+2        0.72867   0.00000  -0.32064  -1.57009   0.48399
  92        9D-2       -0.12541   0.00000  -0.12624   0.83310   0.92513
                          46        47        48        49        50
                           V         V         V         V         V
     Eigenvalues --     2.00118   2.13963   2.19711   2.21178   2.27235
   1 1   O  1S          0.04554   0.00000   0.00000   0.01896  -0.01038
   2        2S         -0.89262   0.00000   0.00000  -0.46869   0.49365
   3        3S         -0.39635   0.00000   0.00000  -0.34799   0.13655
   4        4S         -0.50244   0.00000   0.00000  10.49051   9.25682
   5        5S         -1.23864   0.00000   0.00000   1.71030   4.38697
   6        6PX        -0.00973   0.00000   0.00000   0.00204  -0.00113
   7        6PY         0.13213   0.00000   0.00000  -0.04276  -0.23825
   8        6PZ         0.00000  -0.03434   0.00138   0.00000   0.00000
   9        7PX        -0.01407   0.00000   0.00000   0.05446  -0.01031
  10        7PY         0.03378   0.00000   0.00000  -0.86779  -0.86556
  11        7PZ         0.00000  -0.04496   0.00055   0.00000   0.00000
  12        8PX         0.21709   0.00000   0.00000   0.11888   0.04237
  13        8PY        -1.11195   0.00000   0.00000  -4.47564  -3.26622
  14        8PZ         0.00000  -0.17287   0.00752   0.00000   0.00000
  15        9PX        -0.01002   0.00000   0.00000   0.00925  -0.00089
  16        9PY         0.07142   0.00000   0.00000   0.08203  -0.26413
  17        9PZ         0.00000   0.34402  -0.00421   0.00000   0.00000
  18       10D 0       -0.02301   0.00000   0.00000   0.01599  -0.00237
  19       10D+1        0.00000   0.00042   0.02199   0.00000   0.00000
  20       10D-1        0.00000   0.01256  -0.00002   0.00000   0.00000
  21       10D+2        0.01818   0.00000   0.00000  -0.03313   0.00283
  22       10D-2       -0.00131   0.00000   0.00000  -0.00200   0.00081
  23       11D 0       -0.48726   0.00000   0.00000  -0.88342  -1.23967
  24       11D+1        0.00000   0.01263   0.84552   0.00000   0.00000
  25       11D-1        0.00000   0.98579  -0.00821   0.00000   0.00000
  26       11D+2        0.16267   0.00000   0.00000   0.04638  -0.25951
  27       11D-2       -0.03738   0.00000   0.00000  -0.03668   0.02254
  28       12D 0       -0.06020   0.00000   0.00000  -0.83392   0.28687
  29       12D+1        0.00000  -0.01088  -0.83256   0.00000   0.00000
  30       12D-1        0.00000  -0.60103   0.00433   0.00000   0.00000
  31       12D+2       -0.22057   0.00000   0.00000   1.06424  -0.62550
  32       12D-2       -0.09061   0.00000   0.00000   0.01305  -0.05282
  33       13F 0        0.00000   0.05749  -0.00127   0.00000   0.00000
  34       13F+1       -0.00434   0.00000   0.00000  -0.00380   0.00313
  35       13F-1        0.08379   0.00000   0.00000   0.07703  -0.00297
  36       13F+2        0.00000  -0.03208   0.00160   0.00000   0.00000
  37       13F-2        0.00000  -0.00141  -0.07427   0.00000   0.00000
  38       13F+3       -0.00046   0.00000   0.00000  -0.00159   0.00197
  39       13F-3       -0.12201   0.00000   0.00000  -0.01091  -0.04329
  40       14F 0        0.00000  -0.58736   0.01589   0.00000   0.00000
  41       14F+1        0.01465   0.00000   0.00000   0.01567  -0.02507
  42       14F-1       -0.40158   0.00000   0.00000  -0.22937   0.22987
  43       14F+2        0.00000   0.44442  -0.02080   0.00000   0.00000
  44       14F-2        0.00000   0.01771   0.92501   0.00000   0.00000
  45       14F+3       -0.00558   0.00000   0.00000   0.03172  -0.02650
  46       14F-3        0.51736   0.00000   0.00000  -1.17069   0.46352
  47 2   H  1S          0.13426   0.00000   0.00000   0.32196  -0.07553
  48        2S         -1.07998   0.00000   0.00000  -6.77922  -3.05315
  49        3S          1.38785   0.00000   0.00000  -0.95411  -3.56684
  50        4S          0.08027   0.00000   0.00000  -0.10385  -0.19184
  51        5PX         0.10144   0.00000   0.00000   0.13697  -0.03183
  52        5PY        -0.06519   0.00000   0.00000  -0.16564   0.02643
  53        5PZ         0.00000  -0.04551   0.06821   0.00000   0.00000
  54        6PX        -0.25862   0.00000   0.00000   1.36603   2.27305
  55        6PY         0.49252   0.00000   0.00000  -1.24795  -0.73834
  56        6PZ         0.00000   0.02865   0.15623   0.00000   0.00000
  57        7PX        -0.61023   0.00000   0.00000   0.11284   1.18143
  58        7PY         0.46819   0.00000   0.00000  -0.14867  -0.69845
  59        7PZ         0.00000  -0.19530   0.15178   0.00000   0.00000
  60        8D 0        0.09007   0.00000   0.00000   0.06085   0.00248
  61        8D+1        0.00000   0.05310  -0.05521   0.00000   0.00000
  62        8D-1        0.00000   0.00155   0.07399   0.00000   0.00000
  63        8D+2       -0.06991   0.00000   0.00000   0.05318  -0.07484
  64        8D-2        0.16621   0.00000   0.00000   0.15379   0.05785
  65        9D 0       -0.54673   0.00000   0.00000  -0.29205   0.36769
  66        9D+1        0.00000  -0.26997   0.24108   0.00000   0.00000
  67        9D-1        0.00000   0.05783  -0.21214   0.00000   0.00000
  68        9D+2        0.29556   0.00000   0.00000  -0.06126  -0.32960
  69        9D-2       -0.72331   0.00000   0.00000  -0.03242   0.42580
  70 3   H  1S          0.11434   0.00000   0.00000   0.32313  -0.07641
  71        2S         -0.75663   0.00000   0.00000  -6.53118  -2.95127
  72        3S          1.17847   0.00000   0.00000  -0.71748  -3.64702
  73        4S          0.05182   0.00000   0.00000  -0.09203  -0.19481
  74        5PX        -0.08405   0.00000   0.00000  -0.13165   0.03480
  75        5PY        -0.05420   0.00000   0.00000  -0.16011   0.02691
  76        5PZ         0.00000  -0.04755  -0.06555   0.00000   0.00000
  77        6PX         0.17277   0.00000   0.00000  -1.25398  -2.29387
  78        6PY         0.46627   0.00000   0.00000  -1.19231  -0.80473
  79        6PZ         0.00000   0.02195  -0.15574   0.00000   0.00000
  80        7PX         0.50196   0.00000   0.00000  -0.03711  -1.21277
  81        7PY         0.42987   0.00000   0.00000  -0.11703  -0.73963
  82        7PZ         0.00000  -0.20425  -0.15032   0.00000   0.00000
  83        8D 0        0.08501   0.00000   0.00000   0.05545   0.00689
  84        8D+1        0.00000  -0.05675  -0.05370   0.00000   0.00000
  85        8D-1        0.00000  -0.00200  -0.07552   0.00000   0.00000
  86        8D+2       -0.06464   0.00000   0.00000   0.05727  -0.07129
  87        8D-2       -0.15995   0.00000   0.00000  -0.14192  -0.06694
  88        9D 0       -0.46541   0.00000   0.00000  -0.29909   0.37549
  89        9D+1        0.00000   0.27073   0.22281   0.00000   0.00000
  90        9D-1        0.00000   0.06729   0.20886   0.00000   0.00000
  91        9D+2        0.24980   0.00000   0.00000  -0.04114  -0.33189
  92        9D-2        0.65236   0.00000   0.00000   0.04058  -0.45315
                          51        52        53        54        55
[...]
  90        9D-1        0.00000   0.00000   0.00000   0.00000   0.00000
  91        9D+2        0.00000  -0.00001   0.00000   0.00000   0.00000
  92        9D-2        0.00000   0.00000   0.00000   0.00000   0.00000
                          61        62        63        64        65
  61        8D+1        0.00004
  62        8D-1        0.00000   0.00002
  63        8D+2        0.00000   0.00000   0.00003
  64        8D-2        0.00000   0.00000   0.00000   0.00010
  65        9D 0        0.00000   0.00000   0.00000   0.00000   0.00000
  66        9D+1        0.00002   0.00000   0.00000   0.00000   0.00000
  67        9D-1        0.00000   0.00001   0.00000   0.00000   0.00000
  68        9D+2        0.00000   0.00000   0.00001   0.00000   0.00000
  69        9D-2        0.00000   0.00000   0.00000   0.00002   0.00000
  70 3   H  1S          0.00000   0.00000   0.00003   0.00000   0.00001
  71        2S          0.00000   0.00000   0.00014   0.00000   0.00005
  72        3S          0.00000   0.00000   0.00002   0.00000   0.00001
  73        4S          0.00000   0.00000   0.00000   0.00000   0.00000
  74        5PX         0.00000   0.00000   0.00001   0.00000   0.00000
  75        5PY         0.00000   0.00000   0.00000   0.00000   0.00000
  76        5PZ         0.00000   0.00000   0.00000   0.00000   0.00000
  77        6PX         0.00000   0.00000   0.00004   0.00000   0.00000
  78        6PY         0.00000   0.00000   0.00000  -0.00004   0.00000
  79        6PZ         0.00003   0.00000   0.00000   0.00000   0.00000
  80        7PX         0.00000   0.00000   0.00000   0.00000   0.00000
  81        7PY         0.00000   0.00000   0.00000   0.00000   0.00000
  82        7PZ         0.00001   0.00000   0.00000   0.00000   0.00000
  83        8D 0        0.00000   0.00000   0.00000   0.00000   0.00000
  84        8D+1        0.00000   0.00000   0.00000   0.00000   0.00000
  85        8D-1        0.00000   0.00000   0.00000   0.00000   0.00000
  86        8D+2        0.00000   0.00000   0.00000   0.00000   0.00000
  87        8D-2        0.00000   0.00000   0.00000  -0.00001   0.00000
  88        9D 0        0.00000   0.00000   0.00000   0.00000   0.00000
  89        9D+1        0.00001   0.00000   0.00000   0.00000   0.00000
  90        9D-1        0.00000   0.00000   0.00000   0.00000   0.00000
  91        9D+2        0.00000   0.00000   0.00000   0.00000   0.00000
  92        9D-2        0.00000   0.00000   0.00000  -0.00001   0.00000
                          66        67        68        69        70
  66        9D+1        0.00009
  67        9D-1        0.00000   0.00004
  68        9D+2        0.00000   0.00000   0.00003
  69        9D-2        0.00000   0.00000   0.00000   0.00003
  70 3   H  1S          0.00000   0.00000   0.00033   0.00001   0.07300
  71        2S          0.00000   0.00000   0.00079   0.00002   0.07921
  72        3S          0.00000   0.00000   0.00012   0.00000   0.01160
  73        4S          0.00000   0.00000   0.00000   0.00000  -0.00005
  74        5PX         0.00000   0.00000   0.00001   0.00000   0.00000
  75        5PY         0.00000   0.00000   0.00000  -0.00001   0.00000
  76        5PZ         0.00003   0.00000   0.00000   0.00000   0.00000
  77        6PX         0.00000   0.00000   0.00004   0.00000   0.00000
  78        6PY         0.00000   0.00000   0.00000  -0.00010   0.00000
  79        6PZ         0.00019   0.00000   0.00000   0.00000   0.00000
  80        7PX         0.00000   0.00000  -0.00001   0.00000   0.00000
  81        7PY         0.00000   0.00000   0.00000   0.00000   0.00000
  82        7PZ         0.00011   0.00000   0.00000   0.00000   0.00000
  83        8D 0        0.00000   0.00000   0.00000   0.00000   0.00000
  84        8D+1        0.00001   0.00000   0.00000   0.00000   0.00000
  85        8D-1        0.00000   0.00000   0.00000   0.00000   0.00000
  86        8D+2        0.00000   0.00000   0.00000   0.00000   0.00000
  87        8D-2        0.00000   0.00000   0.00000  -0.00001   0.00000
  88        9D 0        0.00000   0.00000   0.00000   0.00000   0.00000
  89        9D+1        0.00003   0.00000   0.00000   0.00000   0.00000
  90        9D-1        0.00000   0.00001   0.00000   0.00000   0.00000
  91        9D+2        0.00000   0.00000   0.00000   0.00000   0.00000
  92        9D-2        0.00000   0.00000   0.00000  -0.00001   0.00000
                          71        72        73        74        75
  71        2S          0.18402
  72        3S          0.04468   0.02017
  73        4S         -0.00004   0.00015   0.00003
  74        5PX         0.00000   0.00000   0.00000   0.00054
  75        5PY         0.00000   0.00000   0.00000   0.00000   0.00042
  76        5PZ         0.00000   0.00000   0.00000   0.00000   0.00000
  77        6PX         0.00000   0.00000   0.00000   0.00077   0.00000
  78        6PY         0.00000   0.00000   0.00000   0.00000   0.00051
  79        6PZ         0.00000   0.00000   0.00000   0.00000   0.00000
  80        7PX         0.00000   0.00000   0.00000   0.00001   0.00000
  81        7PY         0.00000   0.00000   0.00000   0.00000   0.00002
  82        7PZ         0.00000   0.00000   0.00000   0.00000   0.00000
  83        8D 0        0.00000   0.00000   0.00000   0.00000   0.00000
  84        8D+1        0.00000   0.00000   0.00000   0.00000   0.00000
  85        8D-1        0.00000   0.00000   0.00000   0.00000   0.00000
  86        8D+2        0.00000   0.00000   0.00000   0.00000   0.00000
  87        8D-2        0.00000   0.00000   0.00000   0.00000   0.00000
  88        9D 0        0.00000   0.00000   0.00000   0.00000   0.00000
  89        9D+1        0.00000   0.00000   0.00000   0.00000   0.00000
  90        9D-1        0.00000   0.00000   0.00000   0.00000   0.00000
  91        9D+2        0.00000   0.00000   0.00000   0.00000   0.00000
  92        9D-2        0.00000   0.00000   0.00000   0.00000   0.00000
                          76        77        78        79        80
  76        5PZ         0.00026
  77        6PX         0.00000   0.00365
  78        6PY         0.00000   0.00000   0.00187
  79        6PZ         0.00044   0.00000   0.00000   0.00198
  80        7PX         0.00000   0.00022   0.00000   0.00000   0.00011
  81        7PY         0.00000   0.00000   0.00013   0.00000   0.00000
  82        7PZ         0.00009   0.00000   0.00000   0.00083   0.00000
  83        8D 0        0.00000   0.00000   0.00000   0.00000   0.00000
  84        8D+1        0.00000   0.00000   0.00000   0.00000   0.00000
  85        8D-1        0.00000   0.00000   0.00000   0.00000   0.00000
  86        8D+2        0.00000   0.00000   0.00000   0.00000   0.00000
  87        8D-2        0.00000   0.00000   0.00000   0.00000   0.00000
  88        9D 0        0.00000   0.00000   0.00000   0.00000   0.00000
  89        9D+1        0.00000   0.00000   0.00000   0.00000   0.00000
  90        9D-1        0.00000   0.00000   0.00000   0.00000   0.00000
  91        9D+2        0.00000   0.00000   0.00000   0.00000   0.00000
  92        9D-2        0.00000   0.00000   0.00000   0.00000   0.00000
                          81        82        83        84        85
  81        7PY         0.00022
  82        7PZ         0.00000   0.00098
  83        8D 0        0.00000   0.00000   0.00004
  84        8D+1        0.00000   0.00000   0.00000   0.00004
  85        8D-1        0.00000   0.00000   0.00000   0.00000   0.00002
  86        8D+2        0.00000   0.00000   0.00000   0.00000   0.00000
  87        8D-2        0.00000   0.00000   0.00000   0.00000   0.00000
  88        9D 0        0.00000   0.00000   0.00000   0.00000   0.00000
  89        9D+1        0.00000   0.00000   0.00000   0.00002   0.00000
  90        9D-1        0.00000   0.00000   0.00000   0.00000   0.00001
  91        9D+2        0.00000   0.00000   0.00000   0.00000   0.00000
  92        9D-2        0.00000   0.00000   0.00000   0.00000   0.00000
                          86        87        88        89        90
  86        8D+2        0.00003
  87        8D-2        0.00000   0.00010
  88        9D 0        0.00000   0.00000   0.00001
  89        9D+1        0.00000   0.00000   0.00000   0.00008
  90        9D-1        0.00000   0.00000   0.00000   0.00000   0.00004
  91        9D+2        0.00001   0.00000   0.00000   0.00000   0.00000
  92        9D-2        0.00000   0.00002   0.00000   0.00000   0.00000
                          91        92
  91        9D+2        0.00003
  92        9D-2        0.00000   0.00004
     Gross orbital populations:
                           1
   1 1   O  1S          1.95618
   2        2S          0.93645
   3        3S          0.24467
   4        4S          0.63734
   5        5S          0.05788
   6        6PX         0.36931
   7        6PY         0.43457
   8        6PZ         0.51857
   9        7PX         0.57922
  10        7PY         0.68160
  11        7PZ         0.80494
  12        8PX         0.21621
  13        8PY         0.32469
  14        8PZ         0.50523
  15        9PX         0.00398
  16        9PY         0.01313
  17        9PZ         0.03422
  18       10D 0        0.00053
  19       10D+1        0.00000
  20       10D-1        0.00027
  21       10D+2        0.00011
  22       10D-2        0.00170
  23       11D 0        0.00244
  24       11D+1        0.00000
  25       11D-1        0.00157
  26       11D+2        0.00050
  27       11D-2        0.00741
  28       12D 0       -0.00168
  29       12D+1        0.00000
  30       12D-1        0.00069
  31       12D+2        0.00010
  32       12D-2       -0.00181
  33       13F 0        0.00010
  34       13F+1        0.00019
  35       13F-1        0.00015
  36       13F+2        0.00001
  37       13F-2        0.00000
  38       13F+3       -0.00005
  39       13F-3        0.00015
  40       14F 0        0.00007
  41       14F+1        0.00030
  42       14F-1        0.00008
  43       14F+2        0.00000
  44       14F-2        0.00000
  45       14F+3        0.00008
  46       14F-3       -0.00035
  47 2   H  1S          0.25728
  48        2S          0.41633
  49        3S          0.03781
  50        4S         -0.00100
  51        5PX         0.00880
  52        5PY         0.00680
  53        5PZ         0.00482
  54        6PX         0.01280
  55        6PY         0.01567
  56        6PZ         0.03107
  57        7PX        -0.00020
  58        7PY         0.00837
  59        7PZ         0.02077
  60        8D 0        0.00057
  61        8D+1        0.00205
  62        8D-1        0.00107
  63        8D+2        0.00169
  64        8D-2        0.00200
  65        9D 0       -0.00044
  66        9D+1        0.00566
  67        9D-1        0.00252
  68        9D+2        0.00337
  69        9D-2        0.00085
  70 3   H  1S          0.25402
  71        2S          0.41320
  72        3S          0.03916
  73        4S         -0.00101
  74        5PX         0.00842
  75        5PY         0.00666
  76        5PZ         0.00465
  77        6PX         0.01305
  78        6PY         0.01535
  79        6PZ         0.03027
  80        7PX        -0.00031
  81        7PY         0.00798
  82        7PZ         0.02042
  83        8D 0        0.00057
  84        8D+1        0.00196
  85        8D-1        0.00107
  86        8D+2        0.00165
  87        8D-2        0.00196
  88        9D 0       -0.00048
  89        9D+1        0.00549
  90        9D-1        0.00253
  91        9D+2        0.00340
  92        9D-2        0.00059
          Condensed to atoms (all electrons):
               1          2          3
     1  O    7.813386   0.259049   0.258336
     2  H    0.259049   0.572270   0.007309
     3  H    0.258336   0.007309   0.564955
 Mulliken charges:
               1
     1  O   -0.330772
     2  H    0.161372
     3  H    0.169400
 Sum of Mulliken charges =   0.00000
 Mulliken charges with hydrogens summed into heavy atoms:
               1
     1  O    0.000000
 Electronic spatial extent (au):  <R**2>=             19.8262
 Charge=              0.0000 electrons
 Dipole moment (field-independent basis, Debye):
    X=              0.0028    Y=             -1.9429    Z=              0.0000  Tot=              1.9429
 Quadrupole moment (field-independent basis, Debye-Ang):
   XX=             -4.2810   YY=             -6.3811   ZZ=             -7.6880
   XY=              0.0211   XZ=              0.0000   YZ=              0.0000
 Traceless Quadrupole moment (field-independent basis, Debye-Ang):
   XX=              1.8357   YY=             -0.2644   ZZ=             -1.5713
   XY=              0.0211   XZ=              0.0000   YZ=              0.0000
 Octapole moment (field-independent basis, Debye-Ang**2):
  XXX=              0.0099  YYY=             -1.1033  ZZZ=              0.0000  XYY=             -0.0150
  XXY=             -1.4210  XXZ=              0.0000  XZZ=              0.0036  YZZ=             -0.2380
  YYZ=              0.0000  XYZ=              0.0000
 Hexadecapole moment (field-independent basis, Debye-Ang**3):
 XXXX=             -6.2878 YYYY=             -7.7005 ZZZZ=             -7.2837 XXXY=              0.0009
 XXXZ=              0.0000 YYYX=              0.0014 YYYZ=              0.0000 ZZZX=              0.0000
 ZZZY=              0.0000 XXYY=             -2.0052 XXZZ=             -2.6141 YYZZ=             -2.5451
 XXYZ=              0.0000 YYXZ=              0.0000 ZZXY=             -0.0050
 N-N= 9.104173717062D+00 E-N=-1.988429025530D+02  KE= 7.589874531673D+01
 Symmetry A'   KE= 7.135943582489D+01
 Symmetry A"   KE= 4.539309491848D+00
 Orbital energies and kinetic energies (alpha):
                                 1                 2
   1         O               -19.031664         29.006738
   2         O                -1.192481          2.599754
   3         O                -0.686526          1.843595
   4         O                -0.542745          2.229631
   5         O                -0.469827          2.269655
   6         V                 0.027097          0.126778
   7         V                 0.046948          0.079313
   8         V                 0.130310          0.369132
   9         V                 0.156251          0.287307
  10         V                 0.167929          0.416550
  11         V                 0.176981          0.404596
  12         V                 0.218509          0.369836
  13         V                 0.239391          0.284437
  14         V                 0.260447          0.288530
  15         V                 0.294813          0.439843
  16         V                 0.302477          0.508427
  17         V                 0.362841          0.387830
  18         V                 0.409883          1.130692
  19         V                 0.434207          1.202490
  20         V                 0.568500          0.878652
  21         V                 0.623809          0.908307
  22         V                 0.679728          0.841677
  23         V                 0.695230          0.841127
  24         V                 0.703497          0.823259
  25         V                 0.799240          1.082703
  26         V                 0.821420          1.220809
  27         V                 0.849887          1.717490
  28         V                 0.884735          1.148867
  29         V                 0.885866          1.362551
  30         V                 0.901977          0.977515
  31         V                 0.907307          1.143518
  32         V                 0.935162          1.204797
  33         V                 0.984496          1.572934
  34         V                 0.994755          1.674309
  35         V                 1.038704          1.484583
  36         V                 1.093179          1.152964
  37         V                 1.149443          1.377817
  38         V                 1.155690          1.219536
  39         V                 1.222503          1.550327
  40         V                 1.449366          1.746002
  41         V                 1.487426          1.837236
  42         V                 1.515907          1.916709
  43         V                 1.711151          2.589046
  44         V                 1.734772          2.132656
  45         V                 1.877426          2.791867
  46         V                 2.001180          3.105519
  47         V                 2.139628          2.665181
  48         V                 2.197108          2.654917
  49         V                 2.211777          2.910842
  50         V                 2.272347          3.422234
  51         V                 2.311060          2.545851
  52         V                 2.321451          3.006289
  53         V                 2.362370          3.122636
  54         V                 2.567199          3.186824
  55         V                 2.583160          3.099464
  56         V                 2.624179          3.478157
  57         V                 2.720821          3.065426
  58         V                 2.757983          3.244400
  59         V                 3.466111          4.564173
  60         V                 3.569307          4.798706
  61         V                 3.799916          7.783234
  62         V                 3.859253          4.341438
  63         V                 4.029798          4.571792
  64         V                 4.084650          4.613341
  65         V                 4.151097          4.724896
  66         V                 4.218469          4.884569
  67         V                 4.229107          4.937361
  68         V                 4.241184          5.068615
  69         V                 4.297822          5.948704
  70         V                 4.445426          7.493764
  71         V                 4.581671          6.826475
  72         V                 4.944407          5.612523
  73         V                 4.948609          5.803694
  74         V                 5.044750          6.326458
  75         V                 5.062543          7.641330
  76         V                 5.249324          7.209650
  77         V                 5.434591          6.938409
  78         V                 5.856382          8.691274
  79         V                 6.210056          8.412544
  80         V                 6.391045          7.669260
  81         V                 6.555339          7.976788
  82         V                 6.797581          8.673426
  83         V                 6.876150          9.185556
  84         V                 6.936446          9.862144
  85         V                 6.971766          9.511312
  86         V                 6.979861          8.582211
  87         V                 6.981426          8.812045
  88         V                 7.168412         10.290199
  89         V                 7.537225          9.974461
  90         V                 7.548095          9.983226
  91         V                 8.382338         11.161478
  92         V                14.855914         39.046346
 Total kinetic energy from orbitals= 7.589874531673D+01

 Test job not archived.
 1\1\GINC-N25\SP\RLC-wPBE\Aug-CC-pVTZ\H2O1\HOLLAS\05-Feb-2018\0\\#LC-wP
 BE/aug-cc-pVTZ SP POP=FULL IOP(6/81=3) IOP(3/107=0512000000,3/108=0512
 000000)\\water dimer, printing kinetic energy of orbitals\\0,1\O,0,-1.
 524855,-0.006319,-0.119794\H,0,-1.905803,0.040057,0.763276\H,0,-0.5636
 07,0.002668,0.011166\\Version=ES64L-G09RevD.01\State=1-A'\HF=-76.42996
 53\RMSD=2.638e-09\Dipole=0.3782735,0.0362088,0.6632492\Quadrupole=0.99
 39827,-1.1645603,0.1705776,-0.0309796,-0.6639305,0.0701315\PG=CS [SG(H
 2O1)]\\@


 SOME PEOPLE TRY TO PULL THE WOOL OVER YOUR EYES
 USING THE WRONG YARN.
 Job cpu time:       0 days  0 hours  0 minutes 15.6 seconds.
 File lengths (MBytes):  RWF=      5 Int=      0 D2E=      0 Chk=      1 Scr=      1
 Normal termination of Gaussian 09 at Mon Feb  5 08:55:20 2018.
