
 Primary working directories    : /scratch/hollas/M12_opt_casscf.molpro_399873
 Secondary working directories  : /scratch/hollas/M12_opt_casscf.molpro_399873
 Wavefunction directory         : /home/hollas/PHOTOX/INPUTS/MOLPRO/
 Main file repository           : /scratch/hollas/M12_opt_casscf.molpro_399873/

 SHA1      : 9a5d268be97265f18c756e65aa7d05a68209a29b
 NAME      : 2012.1.11
 ARCHNAME  : Linux/x86_64
 FC        : /usr/local/programs/common/intel/compiler/2011.5.220/composerxe-2011.5.220/bin/intel64/ifort
 FCVERSION : 12.0.5
 BLASLIB   : -L/usr/local/programs/common/intel/compiler/2011.5.220/composerxe-2011.5.220/mkl/lib/intel64 -lmkl_intel_ilp64 -lmkl_sequential -lmkl_core
 id        : vscht

 Nodes     nprocs
 a33          1

 Using customized tuning parameters: mindgm=12; mindgv=20; mindgc=4; mindgr=1; noblas=0; minvec=7
 default implementation of scratch files=df  


 Variables initialized (774), CPU time= 0.00 sec
 Commands  initialized (547), CPU time= 0.00 sec, 516 directives.
 Default parameters read. Elapsed time= 0.19 sec

 Checking input...
 Passed
1


                                         ***  PROGRAM SYSTEM MOLPRO  ***
                         Copyright, University College Cardiff Consultants Limited, 2008

                                    Version 2012.1 linked Feb 27 2014 15:24:15


 **********************************************************************************************************************************
 LABEL *   This works with segmented basis sets (i.e. Pople)                             
 Linux-3.8.10-client/a33(x86_64) 64 bit serial version                                   DATE: 23-Nov-15          TIME: 00:28:37  
 **********************************************************************************************************************************

 SHA1:             9a5d268be97265f18c756e65aa7d05a68209a29b
 **********************************************************************************************************************************
 **********************************************************************************************************************************
 ***,For General Contracted basis sets (Dunning), there's a different syntax
 
 gprint,orbital,civector
 memory, 40,m;
 Angstrom;
 NoOrient;
 NoSym;
 
 geometry={
  O         -0.0000218309       -0.0660220264       -1.5099793198
  H          0.0000841166        0.8300419659       -1.8585417882
  H         -0.0001501717        0.0314438609       -0.4476371681
 }
 
 
 
 basis=6-31g*;
 
 hf;
 
 multi;
 start, 2141.2;
 occ, 7;
 closed,1;
 state,3;
 weight, 1,1,1;
 MAXITER,30;
 
 cpmcscf,grad,2.1;
 forces;
 hessian,numerical=5;
 optg,root=2;
 frequencies;
 
 put,molden,molden.opt_casscf
 

 Variables initialized (774), CPU time= 0.00 sec
 Commands  initialized (547), CPU time= 0.01 sec, 516 directives.
 Default parameters read. Elapsed time= 0.08 sec

 Checking input...
 Passed
1


                                         ***  PROGRAM SYSTEM MOLPRO  ***
                         Copyright, University College Cardiff Consultants Limited, 2008

                                    Version 2012.1 linked Feb 27 2014 15:24:15


 **********************************************************************************************************************************
 LABEL *   For General Contracted basis sets (Dunning), there's a different synta        
 Linux-3.8.10-client/a33(x86_64) 64 bit serial version                                   DATE: 23-Nov-15          TIME: 00:28:37  
 **********************************************************************************************************************************

 SHA1:             9a5d268be97265f18c756e65aa7d05a68209a29b
 **********************************************************************************************************************************


 Variable memory set to   40000000 words,  buffer space   230000 words

 ZSYMEL=NOSYM
 ZUNIT=ANG
 

Geometry recognized as XYZ

 SETTING BASIS          =    6-31G*


 Recomputing integrals since basis changed


 Using spherical harmonics

 Library entry O      S 6-31G                selected for orbital group  1
 Library entry O      P 6-31G                selected for orbital group  1
 Library entry O      D 6-31G*               selected for orbital group  1
 Library entry H      S 6-31G                selected for orbital group  2

1PROGRAM * SEWARD (Integral evaluation for generally contracted gaussian basis sets)     Author: Roland Lindh, 1990

 Geometry written to block  1 of record 700


 Point group  C1  



 ATOMIC COORDINATES

 NR  ATOM    CHARGE       X              Y              Z

   1  O       8.00   -0.000041254   -0.124763549   -2.853447379
   2  H       1.00    0.000158957    1.568551993   -3.512134984
   3  H       1.00   -0.000283783    0.059420286   -0.845911654

 Bond lengths in Bohr (Angstrom)

 1-2  1.816916873  1-3  2.015967120
     ( 0.961471000)     ( 1.066803854)

 Bond angles

  2-1-3  106.01368226

 NUCLEAR CHARGE:                   10
 NUMBER OF PRIMITIVE AOS:          36
 NUMBER OF SYMMETRY AOS:           35
 NUMBER OF CONTRACTIONS:           18   (  18A   )
 NUMBER OF CORE ORBITALS:           1   (   1A   )
 NUMBER OF VALENCE ORBITALS:        6   (   6A   )


 NUCLEAR REPULSION ENERGY    8.69778526


 Eigenvalues of metric

         1 0.698E-01 0.132E+00 0.206E+00 0.280E+00 0.423E+00 0.498E+00 0.669E+00 0.712E+00


 Contracted 2-electron integrals neglected if value below      1.0D-11
 AO integral compression algorithm  1   Integral accuracy      1.0D-11

     0.262 MB (compressed) written to integral file ( 97.9%)


 NUMBER OF SORTED TWO-ELECTRON INTEGRALS:      14706.     BUFFER LENGTH:  32768
 NUMBER OF SEGMENTS:   1  SEGMENT LENGTH:      14706      RECORD LENGTH: 524288

 Memory used in sort:       0.57 MW

 SORT1 READ       19246. AND WROTE        9898. INTEGRALS IN      1 RECORDS. CPU TIME:     0.00 SEC, REAL TIME:     0.00 SEC
 SORT2 READ        9898. AND WROTE       14706. INTEGRALS IN      1 RECORDS. CPU TIME:     0.01 SEC, REAL TIME:     0.00 SEC

 FILE SIZES:   FILE 1:     6.3 MBYTE,  FILE 4:     4.2 MBYTE,   TOTAL:     10.6 MBYTE

 OPERATOR DM      FOR CENTER  0  COORDINATES:    0.000000    0.000000    0.000000


 **********************************************************************************************************************************
 DATASETS  * FILE   NREC   LENGTH (MB)   RECORD NAMES
              1      19        6.14       500      610      700      900      950      970     1000      129      960     1100   
                                          VAR    BASINP    GEOM    SYMINP    ZMAT    AOBASIS   BASIS     P2S    ABASIS      S 
                                         1400     1410     1200     1210     1080     1600     1650     1300     1700   
                                           T        V       H0       H01     AOSYM     SMH    MOLCAS    ERIS     OPER   

 PROGRAMS   *        TOTAL       INT
 CPU TIMES  *         0.15      0.06
 REAL TIME  *         0.60 SEC
 DISK USED  *        10.86 MB      
 **********************************************************************************************************************************

1PROGRAM * RHF-SCF (CLOSED SHELL)       Authors: W. Meyer, H.-J. Werner


 NUMBER OF ELECTRONS:       5+    5-    SPACE SYMMETRY=1    SPIN SYMMETRY: Singlet 
 CONVERGENCE THRESHOLDS:    1.00E-06 (Density)    1.00E-07 (Energy)
 MAX. NUMBER OF ITERATIONS:       60
 INTERPOLATION TYPE:            DIIS
 INTERPOLATION STEPS:              2 (START)      1 (STEP)
 LEVEL SHIFTS:                  0.00 (CLOSED)  0.00 (OPEN) 



 Orbital guess generated from atomic densities. Full valence occupancy:    5

 Molecular orbital dump at record        2100.2

 ITERATION    DDIFF          GRAD             ENERGY        2-EL.EN.            DIPOLE MOMENTS         DIIS   ORB.
    1      0.000D+00      0.000D+00       -75.95496477     77.169518   -0.00003    1.01263    0.76636    0    start
    2      0.000D+00      0.268D-01       -75.98633905     73.551584   -0.00001    0.68550    0.46260    1    diag
    3      0.277D-01      0.153D-01       -75.99689154     75.038658   -0.00001    0.74824    0.51207    2    diag
    4      0.108D-01      0.165D-02       -75.99717131     74.934443   -0.00001    0.73792    0.49255    3    diag
    5      0.159D-02      0.490D-03       -75.99719707     74.947753   -0.00001    0.73473    0.48552    4    diag
    6      0.651D-03      0.819D-04       -75.99719802     74.947734   -0.00001    0.73432    0.48402    5    diag
    7      0.149D-03      0.114D-04       -75.99719804     74.947716   -0.00001    0.73430    0.48378    6    diag
    8      0.214D-04      0.224D-05       -75.99719804     74.947699   -0.00001    0.73430    0.48375    7    diag
    9      0.394D-05      0.487D-06       -75.99719804     74.947696   -0.00001    0.73431    0.48375    8    diag
   10      0.912D-06      0.903D-07       -75.99719804     74.947700   -0.00001    0.73431    0.48375    0    orth

 Final occupancy:   5

 !RHF STATE 1.1 Energy                -75.997198039812
 Nuclear energy                         8.69778526
 One-electron energy                 -122.16883315
 Two-electron energy                   37.47384985
 Virial quotient                       -1.00288961
 !RHF STATE 1.1 Dipole moment          -0.00001098     0.73430563     0.48374856
 Dipole moment /Debye                  -0.00002791     1.86629651     1.22948567

 ELECTRON ORBITALS
 =================


   Orb  Occ    Energy  Couls-En    Coefficients

                                   1 1s      1 1s      1 1s      1 2px     1 2py     1 2pz     1 2px     1 2py     1 2pz     1 3d0  
                                   1 3d2-    1 3d1+    1 3d2+    1 3d1-    2 1s      2 1s      3 1s      3 1s   

   1.1   2   -20.5647  -53.5318  0.995825  0.021731 -0.007757  0.000000  0.001397  0.000747  0.000000 -0.001552 -0.000818 -0.000269
                                 0.000000  0.000000  0.000194  0.000090  0.000227  0.002032  0.000445  0.001499

   2.1   2    -1.3153   -9.0866 -0.215265  0.471725  0.507294  0.000003  0.078021  0.022210  0.000000  0.050460  0.025003  0.007663
                                 0.000003 -0.000004 -0.014525 -0.005105  0.135417 -0.008225  0.102129 -0.000931

   3.1   2    -0.6803   -7.2089 -0.014174  0.029513  0.064586 -0.000071 -0.313845  0.387993 -0.000045 -0.192287  0.249225  0.037638
                                -0.000006 -0.000004  0.024262  0.021783 -0.239489 -0.119021  0.208591  0.125432

   4.1   2    -0.5565   -7.3137  0.065868 -0.164061 -0.262921 -0.000011  0.442216  0.323910 -0.000009  0.329775  0.246128  0.005351
                                 0.000000 -0.000003 -0.023742  0.022315  0.120260  0.068375  0.163144  0.116926

   5.1   2    -0.4937   -7.5540  0.000000  0.000000  0.000000  0.640818 -0.000044  0.000081  0.510288 -0.000035  0.000065  0.000003
                                 0.028125  0.013051  0.000002  0.000003  0.000000  0.000000  0.000000  0.000000

 HOMO      5.1    -0.493732 =     -13.4351eV
 LUMO      6.1     0.197995 =       5.3877eV
 LUMO-HOMO         0.691726 =      18.8228eV


 **********************************************************************************************************************************
 DATASETS  * FILE   NREC   LENGTH (MB)   RECORD NAMES
              1      19        6.14       500      610      700      900      950      970     1000      129      960     1100   
                                          VAR    BASINP    GEOM    SYMINP    ZMAT    AOBASIS   BASIS     P2S    ABASIS      S 
                                         1400     1410     1200     1210     1080     1600     1650     1300     1700   
                                           T        V       H0       H01     AOSYM     SMH    MOLCAS    ERIS     OPER   

              2       4        0.33       700     1000      520     2100   
                                         GEOM     BASIS   MCVARS     RHF  

 PROGRAMS   *        TOTAL        HF       INT
 CPU TIMES  *         0.15      0.00      0.06
 REAL TIME  *         0.67 SEC
 DISK USED  *        10.86 MB      
 **********************************************************************************************************************************

1PROGRAM * MULTI (Direct Multiconfiguration SCF)       Authors: P.J. Knowles, H.-J. Werner (1984)     S.T. Elbert (1988)


 Number of closed-shell orbitals:   1 (   1 )
 Number of active  orbitals:        6 (   6 )
 Number of external orbitals:      11 (  11 )

 State symmetry 1

 Number of electrons:     8    Spin symmetry=Singlet   Space symmetry=1
 Number of states:        3
 Number of CSFs:        105   (225 determinants, 225 intermediate states)

 Iteration controls:
             1  2  3  4  5  6  7  8  9 10 11 12 13 14 15 16 17 18 19 20 21 22 23 24 25 26 27 28 29 30
 DIAGCI      T  T  T  T  T  T  T  T  T  T  T  T  T  T  T  T  T  T  T  T  T  T  T  T  T  T  T  T  T  T
 WERNER      T  T  T  T  T  T  T  T  T  T  T  T  T  T  T  T  T  T  T  T  T  T  T  T  T  T  T  T  T  T
 INTERNAL    F  T  T  T  T  T  T  T  T  T  T  T  T  T  T  T  T  T  T  T  T  T  T  T  T  T  T  T  T  T

 Molecular orbitals read from record     2100.2  Type=RHF/CANONICAL (state 1.1)

 Wavefunction dump at record             2140.2

 Convergence thresholds  0.10E-05 (gradient)  0.10E-07 (energy)  0.10E-02 (step length)

 Weight factors for state symmetry  1:    0.33333   0.33333   0.33333

 Number of orbital rotations:       83   (     6 Core/Active     11 Core/Virtual   0 Active/Active     66 Active/Virtual)
 Total number of variables:        758


 ITER. MIC  NCI  NEG     ENERGY(VAR)     ENERGY(PROJ)   ENERGY CHANGE     GRAD(0)  GRAD(ORB)   GRAD(CI)     STEP       TIME

   1   39   23    0     -75.77783559     -75.82280521   -0.04496962    0.26890975 0.00711408 0.00468460  0.37D+00      0.02
 *** WARNING *** <S**2> =  0.004157198  0.036902846  0.032920340
 ANNIHILATE S =  1.0 COMPONENT
 FINAL VALUES OF <S**2>    0.000000000  0.000000000  0.000000000
   2   66   59    0     -75.24777112     -75.35501485   -0.10724374    0.10964657 0.00000012 0.72120306  0.81D-01      0.06
   3   19   32    0     -75.80239422     -75.80864119   -0.00624698    0.09551325 0.00000012 0.00000178  0.11D+00      0.09
   4   23   23    0     -75.80871452     -75.80871710   -0.00000257    0.00239126 0.00000002 0.00000032  0.18D-02      0.11
   5   24    8    0     -75.80871710     -75.80871710    0.00000000    0.00000127 0.00000001 0.00000007  0.10D-05      0.12

 ** WVFN ****  CONVERGENCE REACHED, FINAL GRADIENT:  0.32D-07

 Solving MCSCF z-vector equations for state  2.1, requested accuracy=      0.10D-06
 Convergence reached in  22 iterations ( 22 expansion vectors), accuracy=  0.41D-07

 SA-Gradient information saved on record      5100.1



 Results for state 1.1
 =====================

 !MCSCF STATE 1.1 Energy              -76.019678486224
 Nuclear energy                         8.69778526
 Kinetic energy                        76.16432145
 One electron energy                 -122.23744842
 Two electron energy                   37.51998467
 Virial ratio                           1.99810091

 !MCSCF STATE 1.1 Dipole moment        -0.00000117     0.61454884     0.34177984
 Dipole moment /Debye                  -0.00000298     1.56192503     0.86866080

 Results for state 2.1
 =====================

 !MCSCF STATE 2.1 Energy              -75.745200904412
 Nuclear energy                         8.69778526
 Kinetic energy                        76.09777828
 One electron energy                 -120.56308793
 Two electron energy                   36.12010176
 Virial ratio                           1.99536678

 !MCSCF STATE 2.1 Dipole moment         0.00009259     0.23343845    -0.60202030
 Dipole moment /Debye                   0.00023532     0.59330250    -1.53008276

 Results for state 3.1
 =====================

 !MCSCF STATE 3.1 Energy              -75.661271900233
 Nuclear energy                         8.69778526
 Kinetic energy                        76.04460542
 One electron energy                 -120.44850766
 Two electron energy                   36.08945050
 Virial ratio                           1.99495910

 !MCSCF STATE 3.1 Dipole moment        -0.00012586    -0.50542794     0.71667351
 Dipole moment /Debye                  -0.00031989    -1.28458555     1.82148307

 State-averaged charge density matrix saved on record  2140.2 (density set 1)

 !MCSCF expec         <1.1|DMX|1.1>    -0.000001173286 au =    -0.000002982001 Debye
 !MCSCF trans         <2.1|DMX|1.1>    -0.142325532492 au =    -0.361731726870 Debye
 !MCSCF expec         <2.1|DMX|2.1>     0.000092587326 au =     0.000235318097 Debye
 !MCSCF trans         <3.1|DMX|1.1>    -0.085105074231 au =    -0.216301354563 Debye
 !MCSCF trans         <3.1|DMX|2.1>    -0.000189737093 au =    -0.000482232001 Debye
 !MCSCF expec         <3.1|DMX|3.1>    -0.000125863591 au =    -0.000319892386 Debye

 !MCSCF expec         <1.1|DMY|1.1>     0.614548836002 au =     1.561925030606 Debye
 !MCSCF trans         <2.1|DMY|1.1>     0.000009791217 au =     0.000024885163 Debye
 !MCSCF expec         <2.1|DMY|2.1>     0.233438451479 au =     0.593302499509 Debye
 !MCSCF trans         <3.1|DMY|1.1>     0.000005819395 au =     0.000014790458 Debye
 !MCSCF trans         <3.1|DMY|2.1>    -0.745997325133 au =    -1.896011881613 Debye
 !MCSCF expec         <3.1|DMY|3.1>    -0.505427942257 au =    -1.284585549480 Debye

 !MCSCF expec         <1.1|DMZ|1.1>     0.341779838226 au =     0.868660801239 Debye
 !MCSCF trans         <2.1|DMZ|1.1>    -0.000018096160 au =    -0.000045992839 Debye
 !MCSCF expec         <2.1|DMZ|2.1>    -0.602020303010 au =    -1.530082761725 Debye
 !MCSCF trans         <3.1|DMZ|1.1>    -0.000010844177 au =    -0.000027561342 Debye
 !MCSCF trans         <3.1|DMZ|2.1>     1.088820333422 au =     2.767323983019 Debye
 !MCSCF expec         <3.1|DMZ|3.1>     0.716673512404 au =     1.821483065655 Debye


 NATURAL ORBITALS (state averaged)
 =================================

   Orb     Occ        Energy       Coefficients

                                   1 1s      1 1s      1 1s      1 2px     1 2py     1 2pz     1 2px     1 2py     1 2pz     1 3d0  
                                   1 3d2-    1 3d1+    1 3d2+    1 3d1-    2 1s      2 1s      3 1s      3 1s   

   1.1  2.00000   -20.660527     1.000556  0.010322 -0.020152  0.000000  0.004947  0.002520  0.000000  0.001194  0.000559 -0.000307
                                 0.000000  0.000000  0.000014  0.000311 -0.000722  0.003069 -0.000448  0.002352

   2.1  1.99936    -1.246852    -0.200953  0.513940  0.563098 -0.000001 -0.177082 -0.091244 -0.000001 -0.123057 -0.060797  0.008592
                                 0.000002 -0.000003 -0.001141 -0.011260  0.034446 -0.056757  0.031927 -0.047591

   3.1  1.98287    -0.822729    -0.041452  0.088824  0.002925  0.000042  0.550315 -0.033078  0.000023  0.342250  0.006451 -0.015499
                                 0.000005 -0.000001 -0.034114 -0.002458  0.266665  0.111619  0.017018 -0.001512

   4.1  1.97063    -0.745991    -0.022001  0.042576  0.007152 -0.000066  0.044320  0.539582 -0.000039  0.056159  0.335804  0.030027
                                -0.000003 -0.000005  0.001079  0.026171 -0.071382 -0.045952  0.257210  0.151549

   5.1  1.33311    -0.398150     0.000000  0.000000  0.000000  0.668555 -0.000046  0.000085  0.479986 -0.000033  0.000061  0.000002
                                 0.025424  0.011316  0.000002  0.000002  0.000000  0.000000  0.000000  0.000000

   6.1  0.36295     0.157614     0.062768 -0.131725 -0.613703  0.000051 -0.048887 -0.425335  0.000064 -0.002347 -0.500795  0.003748
                                 0.000000  0.000000  0.012133 -0.010414 -0.004506 -0.106561  0.288998  1.233449

   7.1  0.35108     0.199749     0.062054 -0.124246 -0.744628 -0.000046 -0.366714  0.166374 -0.000067 -0.475911  0.270691 -0.003419
                                -0.000001  0.000002  0.012100 -0.005073  0.219725  1.466743 -0.032228 -0.212260
 

 Natural orbital dump (state averaged) at molpro section  2140.2    (Orbital set 2)


 CI vector
 =========

 222200      0.9769171   0.0000000   0.0000000
 222b0a      0.0000000  -0.3237761  -0.6171147
 222a0b      0.0000000   0.3237761   0.6171147
 222ba0      0.0000000  -0.6157268   0.3228100
 222ab0      0.0000000   0.6157268  -0.3228100
 22ba20      0.0000000  -0.1003695   0.0583357
 22ab20      0.0000000   0.1003695  -0.0583357
 220220     -0.0996457   0.0000000   0.0000000
 22a2b0      0.0907314   0.0000000   0.0000000
 22b2a0     -0.0907314   0.0000000   0.0000000
 2a2b02      0.0000000   0.0444991   0.0815527
 2b2a02      0.0000000  -0.0444991  -0.0815527
 2a220b      0.0678963   0.0000000   0.0000000
 2b220a     -0.0678963   0.0000000   0.0000000
 202202     -0.0669863   0.0000000   0.0000000
 220b2a      0.0000000   0.0330339   0.0523095
 220a2b      0.0000000  -0.0330339  -0.0523095

 TOTAL ENERGIES                       -76.01967849   -75.74520090   -75.66127190



 **********************************************************************************************************************************
 DATASETS  * FILE   NREC   LENGTH (MB)   RECORD NAMES
              1      21        6.27       500      610      700      900      950      970     1000      129      960     1100   
                                          VAR    BASINP    GEOM    SYMINP    ZMAT    AOBASIS   BASIS     P2S    ABASIS      S 
                                         1400     1410     1200     1210     1080     1600     1650     1300     1700     1380   
                                           T        V       H0       H01     AOSYM     SMH    MOLCAS    ERIS     OPER     JKOP   
                                         5100   
                                        CPSAMC    

              2       5        0.38       700     1000      520     2100     2140   
                                         GEOM     BASIS   MCVARS     RHF     MCSCF   

 PROGRAMS   *        TOTAL     MULTI        HF       INT
 CPU TIMES  *         0.31      0.16      0.00      0.06
 REAL TIME  *         1.16 SEC
 DISK USED  *        10.91 MB      
 **********************************************************************************************************************************

1PROGRAM * FORCE (Gradient of the energy)

 SA-MCSCF information from    5100.1
 Orbitals from record         2140.2

 Number of closed-shell orbitals:  1 (  1 )
 Number of active orbitals:        6 (  6 )
 Number of occupied orbitals:      7 (  7 )

 Number of electrons= 10     Singlet     Space symmetry=1      Wavefunction type: SA-MCSCF


 End of calculation of the energy gradient  ,IREST=   0


 SA-MC GRADIENT FOR STATE 2.1

 Atom          dE/dx               dE/dy               dE/dz

   1        -0.000006120         0.075087666         0.088775648
   2        -0.000007525        -0.064234641         0.024433762
   3         0.000013645        -0.010853026        -0.113209411

 Nuclear force contribution to virial =        -0.354134624


 **********************************************************************************************************************************
 DATASETS  * FILE   NREC   LENGTH (MB)   RECORD NAMES
              1      21        6.27       500      610      700      900      950      970     1000      129      960     1100   
                                          VAR    BASINP    GEOM    SYMINP    ZMAT    AOBASIS   BASIS     P2S    ABASIS      S 
                                         1400     1410     1200     1210     1080     1600     1650     1300     1700     1380   
                                           T        V       H0       H01     AOSYM     SMH    MOLCAS    ERIS     OPER     JKOP   
                                         5100   
                                        CPSAMC    

              2       5        0.38       700     1000      520     2100     2140   
                                         GEOM     BASIS   MCVARS     RHF     MCSCF   

 PROGRAMS   *        TOTAL    FORCES     MULTI        HF       INT
 CPU TIMES  *         0.32      0.01      0.16      0.00      0.06
 REAL TIME  *         1.19 SEC
 DISK USED  *        10.91 MB      
 **********************************************************************************************************************************


 PROGRAM * HESSIAN

 Computing numerical hessian using default procedure for command MULTI

 Using no symmetry in wavefunction calculations

 Running default procedure: MULTI000
 

 *** Long output written to logfile /home/hollas/PHOTOX/INPUTS/MOLPRO/opt_casscf.molpro.log ***


 Numerically approximating hessian using central energy differences

 Task list generated. Total number of displacements:     90

    9 tasks completed, CPU=1s Elapsed=3s
   18 tasks completed, CPU=2s Elapsed=6s
   27 tasks completed, CPU=3s Elapsed=10s
   36 tasks completed, CPU=4s Elapsed=13s
   45 tasks completed, CPU=5s Elapsed=16s
   54 tasks completed, CPU=6s Elapsed=20s
   63 tasks completed, CPU=7s Elapsed=23s
   72 tasks completed, CPU=8s Elapsed=27s
   81 tasks completed, CPU=9s Elapsed=30s
   90 tasks completed, CPU=10s Elapsed=33s

 Numerical MULTI000 hessian completed. CPU-time:    10.21 sec, Elapsed:    33.97 sec

 MULTI hessian saved to record  5300.2

 Recomputing wavefunction at initial geometry


 **********************************************************************************************************************************
 DATASETS  * FILE   NREC   LENGTH (MB)   RECORD NAMES
              1      21        6.27       500      610      700      900      950      970     1000      129      960     1100   
                                          VAR    BASINP    GEOM    SYMINP    ZMAT    AOBASIS   BASIS     P2S    ABASIS      S 
                                         1400     1410     1200     1210     1080     1600     1650     1300     1700     1380   
                                           T        V       H0       H01     AOSYM     SMH    MOLCAS    ERIS     OPER     JKOP   
                                         5100   
                                        CPSAMC    

              2       6        0.39       700     1000      520     2100     2140     5300   
                                         GEOM     BASIS   MCVARS     RHF     MCSCF    HESS   

 PROGRAMS   *        TOTAL   HESSIAN    FORCES     MULTI        HF       INT
 CPU TIMES  *         7.35      7.03      0.01      0.16      0.00      0.06
 REAL TIME  *        35.53 SEC
 DISK USED  *        11.01 MB      
 **********************************************************************************************************************************


 PROGRAM * OPT (Geometry optimization)     Authors: F. Eckert and H.-J. Werner


 Geometry optimization using default procedure for command MULTI

 Geometry written to block  1 of record 700

 MULTI hessian read from record  5300.2

 Quadratic Steepest Descent -  Transition State Search

 ITER.   ENERGY(OLD)    ENERGY(NEW)      DE          GRADMAX     GRADNORM    GRADRMS     STEPMAX     STEPLEN     STEPRMS   CPU-time
   1   -75.74520090   -75.76315452    -0.01795362  0.13814679  0.17656877  0.05885626  0.24223589  0.30000007  0.17320512      0.11
   2   -75.76315452   -75.82248973    -0.05933521  0.18186794  0.18222910  0.06074303  0.23927648  0.30000013  0.17320516      0.20
   3   -75.82248973   -75.81796714     0.00452259  0.12837585  0.13858600  0.04619533  0.18263112  0.30000014  0.17320516      0.29
   4   -75.81796714   -75.78480888     0.03315826  0.15144177  0.16676433  0.05558811  0.28895331  0.29999990  0.17320503      0.41

 In QSD: Caution, approaching trap region, itrap = 

 In QSD: Recalculating Hessian.
   5   -75.78480888   -75.79350608    -0.00869720  0.04340791  0.05281188  0.01760396  0.26244779  0.30000013  0.17320516      0.54
   6   -75.79350608   -75.80103143    -0.00752535  0.07644712  0.08553689  0.02851230  0.23571880  0.29999990  0.17320502      0.66

 In QSD: Caution, approaching trap region, itrap = 

 In QSD: Recalculating Hessian.
   7   -75.80103143   -75.80044963     0.00058180  0.09029337  0.10523168  0.03507723  0.25443611  0.29999985  0.17320499      0.78

 In QSD: Caution, approaching trap region, itrap = 

 In QSD: Recalculating Hessian.
   8   -75.80044963   -75.80496675    -0.00451712  0.06089527  0.06787340  0.02262447  0.23329905  0.30000022  0.17320521      0.90
   9   -75.80496675   -75.81234099    -0.00737424  0.05345831  0.06709280  0.02236427  0.24610372  0.29999980  0.17320497      1.01
  10   -75.81234099   -75.81378163    -0.00144065  0.03254177  0.03386088  0.01128696  0.28174774  0.30000002  0.17320509      1.14

 In QSD: Caution, approaching trap region, itrap = 

 In QSD: Recalculating Hessian.
  11   -75.81378163   -75.81258745     0.00119419  0.03308621  0.04486814  0.01495605  0.28043100  0.29999968  0.17320490      1.26

 In QSD: Caution, approaching trap region, itrap = 

 In QSD: Recalculating Hessian.
  12   -75.81258745   -75.81421567    -0.00162823  0.01256116  0.01899455  0.00633152  0.29697460  0.29999976  0.17320494      1.37

 In QSD: Caution, approaching trap region, itrap = 

 In QSD: Recalculating Hessian.

 In QSD: A trap region is reached: Choose another initial point
  13   -75.81421567   -75.81326483     0.00095084  0.02453110  0.02970435  0.00990145  0.29327461  0.30000011  0.17320515      1.50

 END OF GEOMETRY OPTIMIZATION.

 Current geometry (xyz format, in Angstrom)

    3
 MULTI000/6-31G*  ENERGY=-75.81326483
 O         -0.0000282463        0.0739901483       -1.3837482781
 H          0.0001678429        1.0563814718       -2.3947027733
 H         -0.0002274826       -0.3349078197       -0.0377072247

 **********************************************************************************************************************************

 Geometry written to block  1 of record 700


 **********************************************************************************************************************************
 DATASETS  * FILE   NREC   LENGTH (MB)   RECORD NAMES
              1      21        6.26       500      610      700      900      950      970     1000      129      960     1100   
                                          VAR    BASINP    GEOM    SYMINP    ZMAT    AOBASIS   BASIS     P2S    ABASIS      S 
                                         1400     1410     1200     1210     1080     1600     1650     1300     1700     1380   
                                           T        V       H0       H01     AOSYM     SMH    MOLCAS    ERIS     OPER     JKOP   
                                         5100   
                                        CPSAMC    

              2       6        0.39       700     1000      520     2100     2140     5300   
                                         GEOM     BASIS   MCVARS     RHF     MCSCF    HESS   

 PROGRAMS   *        TOTAL      OPTG   HESSIAN    FORCES     MULTI        HF       INT
 CPU TIMES  *         8.85      1.50      7.03      0.01      0.16      0.00      0.06
 REAL TIME  *        41.59 SEC
 DISK USED  *        11.01 MB      
 **********************************************************************************************************************************


 PROGRAM * HESSIAN

 Computing numerical hessian using default procedure for command MULTI

 Using no symmetry in wavefunction calculations

 Running default procedure: MULTI000
 

 Numerically approximating hessian using central gradient differences

 Task list generated. Total number of displacements:     18

    5 tasks completed, CPU=0s Elapsed=3s
   10 tasks completed, CPU=1s Elapsed=6s
   15 tasks completed, CPU=1s Elapsed=8s

 Numerical MULTI000 hessian completed. CPU-time:     2.27 sec, Elapsed:     9.37 sec

 MULTI hessian saved to record  5301.2

 FREQUENCIES * CALCULATION OF HARMONIC VIBRATIONAL SPECTRA FOR MULTI


 Permanent Dipole Moment [debye]
   1-  3   -0.000005    0.577350    0.352376

 Dipole Moment Norm    0.6763886 [debye]

 Dipole Moment Derivatives [debye/ang]
                   1             2             3             4             5             6             7             8
         1    -2.0363601     0.0006395    -0.0010943     1.0134492    -0.0004492     0.0004640     1.0229357    -0.0001903
         2     0.0006405     0.8295850    -3.4879058    -0.0004661    -1.4089490     2.3562539    -0.0001743     0.5793609
         3    -0.0010936    -3.4796015     4.6844606     0.0004547     2.2228188    -1.3614068     0.0006389     1.2566900
                   9
         1     0.0006304
         2     1.1317846
         3    -3.3234127

 Projecting out rotations and translations

 Imaginary Vibration  Wavenumber
        Nr             [1/cm] 
        1             2861.48

   Low Vibration      Wavenumber
        Nr             [1/cm] 
        1                0.00
        2                0.00
        3                0.00
        4                0.00
        5                0.00
        6                0.00

     Vibration        Wavenumber
        Nr             [1/cm] 
        1              542.74
        2             1176.69

 FREQUENCIES * CALCULATION OF NORMAL MODES FOR MULTI


 Atomic Coordinates

  Nr  Atom  Charge       X              Y              Z

   1   O     8.00   -0.000053378    0.139821117   -2.614905280
   2   H     1.00    0.000317177    1.996271672   -4.525332408
   3   H     1.00   -0.000429880   -0.632884058   -0.071256328

 Frequencies dumped to record   5400.2

 Gradient norm at reference geometry: 0.29704D-01

 ?WARNING: GRADIENT NORM NOT ZERO!
 
 Molecule is not in standard orientation!
 Symmetry information for normal modes not available!

 Normal Modes

                              1 A         2 A  
 Wavenumbers [cm-1]          542.74     1176.69
 Intensities [km/mol]         63.43       91.51
 Intensities [relative]        5.46        7.87
           GX1              0.00000     0.00000
           GY1             -0.07062    -0.01415
           GZ1             -0.04173    -0.00808
           GX2             -0.00002     0.00010
           GY2              0.49008     0.46370
           GZ2              0.44895    -0.53065
           GX3              0.00002    -0.00010
           GY3              0.63088    -0.23917
           GZ3              0.21349     0.65886


 Normal Modes of imaginary frequencies

                                  1
 Wavenumbers [cm-1]         2861.48
 Intensities [km/mol]       1162.12
 Intensities [relative]      100.00
           GX1              0.00001
           GY1              0.04145
           GZ1             -0.07020
           GX2             -0.00009
           GY2             -0.46317
           GZ2              0.47556
           GX3             -0.00009
           GY3             -0.19482
           GZ3              0.63874


 Normal Modes of low/zero frequencies

                                  1           2           3           4           5
 Wavenumbers [cm-1]            0.00        0.00        0.00        0.00        0.00
 Intensities [km/mol]          0.00        0.00        0.00        0.00        0.00
 Intensities [relative]        0.00        0.00        0.00        0.00        0.00
           GX1              0.25000     0.00001     0.00000     0.00000     0.00000
           GY1             -0.00001     0.12920    -0.00002     0.08929     0.05782
           GZ1              0.00000     0.10599    -0.00006     0.12994     0.02985
           GX2              0.00000    -0.14212     0.00008    -0.22790     0.95404
           GY2              0.00003    -0.22434    -0.00005     0.43560     0.09852
           GZ2             -0.00001    -0.23758    -0.00009     0.46642     0.06959
           GX3              0.00000     0.00012     0.99605     0.00021    -0.00002
           GY3             -0.00003     0.59992    -0.00004    -0.37179     0.00353
           GZ3             -0.00004     0.24898     0.00008    -0.01013     0.01336

                                  6
 Wavenumbers [cm-1]            0.00
 Intensities [km/mol]          0.00
 Intensities [relative]        0.00
           GX1              0.00001
           GY1              0.16610
           GZ1             -0.16358
           GX2             -0.09900
           GY2              0.26948
           GZ2             -0.06315
           GX3             -0.00008
           GY3              0.02848
           GZ3             -0.20539


 Zero point energy:  0.00391717 [H]      859.72 [1/CM]       10.28 [KJ/MOL]

 Recomputing wavefunction at initial geometry


 **********************************************************************************************************************************
 DATASETS  * FILE   NREC   LENGTH (MB)   RECORD NAMES
              1      21        6.26       500      610      700      900      950      970     1000      129      960     1100   
                                          VAR    BASINP    GEOM    SYMINP    ZMAT    AOBASIS   BASIS     P2S    ABASIS      S 
                                         1400     1410     1200     1210     1080     1600     1650     1300     1700     1380   
                                           T        V       H0       H01     AOSYM     SMH    MOLCAS    ERIS     OPER     JKOP   
                                         5100   
                                        CPSAMC    

              2       9        0.39       700     1000      520     2100     2140     5300     5301     5400     5450   
                                         GEOM     BASIS   MCVARS     RHF     MCSCF    HESS     HESS     FREQ     NMOD   

 PROGRAMS   *        TOTAL      FREQ      OPTG   HESSIAN    FORCES     MULTI        HF       INT
 CPU TIMES  *        10.63      1.77      1.50      7.03      0.01      0.16      0.00      0.06
 REAL TIME  *        51.26 SEC
 DISK USED  *        11.01 MB      
 **********************************************************************************************************************************

 Dump information in style MOLDEN to molden.opt_casscf                                                               

 Molecular orbitals read from record     2140.2  Type=MCSCF/NATURAL  
 Occupation numbers read from record     2140.2  Type=MCSCF/NATURAL  
 Orbital energies read from record       2140.2  Type=MCSCF/NATURAL  
 Redundancy group numbers read from rec  2140.2  Type=MCSCF/NATURAL  
 
 DUMP ORBITAL  1.1 AS ORBITAL    1  occ=    2.0000  eig=  -20.6337  GROUP=   2
 DUMP ORBITAL  2.1 AS ORBITAL    2  occ=    1.9880  eig=   -1.2366  GROUP=   3
 DUMP ORBITAL  3.1 AS ORBITAL    3  occ=    1.8463  eig=   -0.5425  GROUP=   3
 DUMP ORBITAL  4.1 AS ORBITAL    4  occ=    1.6676  eig=   -0.4351  GROUP=   3
 DUMP ORBITAL  5.1 AS ORBITAL    5  occ=    1.6656  eig=   -0.4259  GROUP=   3
 DUMP ORBITAL  6.1 AS ORBITAL    6  occ=    0.7105  eig=   -0.0723  GROUP=   3
 DUMP ORBITAL  7.1 AS ORBITAL    7  occ=    0.1220  eig=    0.2531  GROUP=   3

 Total charge:      10.000000
 Frequency information read from record  5400.2

 **********************************************************************************************************************************

     OPTG(MULTI)        HESSIAN         MULTI           HF-SCF  
    -75.81326483    -75.74520090    -75.74520090    -75.99719804
 **********************************************************************************************************************************
 Variable memory released
