 Entering Gaussian System, Link 0=/home/slavicek/G03/gaussian09/d01/arch/x86_64_sse4.2/g09/g09
 Input=irc.com
 Output=irc.log
 Initial command:
 /home/slavicek/G03/gaussian09/d01/arch/x86_64_sse4.2/g09/l1.exe "/scratch/hollas/g09_15697/Gau-15701.inp" -scrdir="/scratch/hollas/g09_15697/"
 Entering Link 1 = /home/slavicek/G03/gaussian09/d01/arch/x86_64_sse4.2/g09/l1.exe PID=     15703.
  
 Copyright (c) 1988,1990,1992,1993,1995,1998,2003,2009,2013,
            Gaussian, Inc.  All Rights Reserved.
  
 This is part of the Gaussian(R) 09 program.  It is based on
 the Gaussian(R) 03 system (copyright 2003, Gaussian, Inc.),
 the Gaussian(R) 98 system (copyright 1998, Gaussian, Inc.),
 the Gaussian(R) 94 system (copyright 1995, Gaussian, Inc.),
 the Gaussian 92(TM) system (copyright 1992, Gaussian, Inc.),
 the Gaussian 90(TM) system (copyright 1990, Gaussian, Inc.),
 the Gaussian 88(TM) system (copyright 1988, Gaussian, Inc.),
 the Gaussian 86(TM) system (copyright 1986, Carnegie Mellon
 University), and the Gaussian 82(TM) system (copyright 1983,
 Carnegie Mellon University). Gaussian is a federally registered
 trademark of Gaussian, Inc.
  
 This software contains proprietary and confidential information,
 including trade secrets, belonging to Gaussian, Inc.
  
 This software is provided under written license and may be
 used, copied, transmitted, or stored only in accord with that
 written license.
  
 The following legend is applicable only to US Government
 contracts under FAR:
  
                    RESTRICTED RIGHTS LEGEND
  
 Use, reproduction and disclosure by the US Government is
 subject to restrictions as set forth in subparagraphs (a)
 and (c) of the Commercial Computer Software - Restricted
 Rights clause in FAR 52.227-19.
  
 Gaussian, Inc.
 340 Quinnipiac St., Bldg. 40, Wallingford CT 06492
  
  
 ---------------------------------------------------------------
 Warning -- This program may not be used in any manner that
 competes with the business of Gaussian, Inc. or will provide
 assistance to any competitor of Gaussian, Inc.  The licensee
 of this program is prohibited from giving any competitor of
 Gaussian, Inc. access to this program.  By using this program,
 the user acknowledges that Gaussian, Inc. is engaged in the
 business of creating and licensing software in the field of
 computational chemistry and represents and warrants to the
 licensee that it is not a competitor of Gaussian, Inc. and that
 it will not use this program in any manner prohibited above.
 ---------------------------------------------------------------
  

 Cite this work as:
 Gaussian 09, Revision D.01,
 M. J. Frisch, G. W. Trucks, H. B. Schlegel, G. E. Scuseria, 
 M. A. Robb, J. R. Cheeseman, G. Scalmani, V. Barone, B. Mennucci, 
 G. A. Petersson, H. Nakatsuji, M. Caricato, X. Li, H. P. Hratchian, 
 A. F. Izmaylov, J. Bloino, G. Zheng, J. L. Sonnenberg, M. Hada, 
 M. Ehara, K. Toyota, R. Fukuda, J. Hasegawa, M. Ishida, T. Nakajima, 
 Y. Honda, O. Kitao, H. Nakai, T. Vreven, J. A. Montgomery, Jr., 
 J. E. Peralta, F. Ogliaro, M. Bearpark, J. J. Heyd, E. Brothers, 
 K. N. Kudin, V. N. Staroverov, T. Keith, R. Kobayashi, J. Normand, 
 K. Raghavachari, A. Rendell, J. C. Burant, S. S. Iyengar, J. Tomasi, 
 M. Cossi, N. Rega, J. M. Millam, M. Klene, J. E. Knox, J. B. Cross, 
 V. Bakken, C. Adamo, J. Jaramillo, R. Gomperts, R. E. Stratmann, 
 O. Yazyev, A. J. Austin, R. Cammi, C. Pomelli, J. W. Ochterski, 
 R. L. Martin, K. Morokuma, V. G. Zakrzewski, G. A. Voth, 
 P. Salvador, J. J. Dannenberg, S. Dapprich, A. D. Daniels, 
 O. Farkas, J. B. Foresman, J. V. Ortiz, J. Cioslowski, 
 and D. J. Fox, Gaussian, Inc., Wallingford CT, 2013.
 
 ******************************************
 Gaussian 09:  ES64L-G09RevD.01 24-Apr-2013
                 3-Nov-2014 
 ******************************************
 %Mem=500Mb
 %NprocShared=1
 Will use up to    1 processors via shared memory.
 ----------------------------------------------------------
 #B3LYP/6-31g* irc=(calcfc,maxpoints=200,forward) optcyc=99
 ----------------------------------------------------------
 1/6=99,10=4,14=-1,18=10,22=1,26=3,38=1,42=200,44=3/1,23;
 2/12=2,17=6,18=5,29=1,40=1/2;
 3/5=1,6=6,7=1,11=2,16=1,25=1,30=1,71=2,74=-5,140=1/1,2,3;
 4//1;
 5/5=2,38=5/2;
 8/6=4,10=90,11=11/1;
 11/6=1,8=1,9=11,15=111,16=1/1,2,10;
 10/6=1,13=1/2;
 6/7=2,8=2,9=2,10=2,28=1/1;
 7/10=1,18=20,25=1/1,2,3,16;
 1/6=99,10=4,14=-1,18=10,22=1,26=3,42=200,44=3/23(2);
 2/29=1/2;
 99/5=20/99;
 2/29=1/2;
 3/5=1,6=6,7=1,11=2,16=1,25=1,30=1,71=2,74=-5,140=1/1,2,3;
 4/5=5,16=3,69=1/1;
 5/5=2,38=5/2;
 8/6=4,10=90,11=11/1;
 11/6=1,8=1,9=11,15=111,16=1/1,2,10;
 10/6=1,13=1/2;
 7/10=1,18=20,25=1/1,2,3,16;
 1/6=99,14=-1,18=10,22=1,26=3,42=200,44=3/23(-8);
 2/29=1/2;
 6/7=2,8=2,9=2,10=2,19=2,28=1/1;
 99/5=20,9=1/99;
 -----------------------------------------------------
 IRC (Intrinsic Reaction Coordinate) job, forward path
 -----------------------------------------------------
 Symbolic Z-matrix:
 Charge =  0 Multiplicity = 1
 c
 c                    1    cc2
 c                    1    cc3      2    ccc3
 h                    1    hc4      2    hcc4     3    dih4     0
 h                    2    hc5      1    hcc5     3    dih5     0
 h                    3    hc6      1    hcc6     2    dih6     0
 f                    3    fc7      1    fcc7     2    dih7     0
       Variables:
  cc2                   1.37467                  
  cc3                   1.37473                  
  ccc3                 59.977                    
  hc4                   1.07993                  
  hcc4                145.79                     
  dih4               -148.053                    
  hc5                   1.0776                   
  hcc5                150.63                     
  dih5               -158.408                    
  hc6                   1.07759                  
  hcc6                150.61                     
  dih6                158.533                    
  fc7                   1.94529                  
  fcc7                 99.713                    
  dih7                -59.187                    
 
 IRC-IRC-IRC-IRC-IRC-IRC-IRC-IRC-IRC-IRC-IRC-IRC-IRC-IRC-IRC-IRC-IRC-IRC
 ------------------------------------------------------------------------
 INPUT DATA FOR L123
 ------------------------------------------------------------------------
 GENERAL PARAMETERS:
 Rxn path following direction = Forward
 Maximum points per path      = 200
 Step size                    =   0.100 bohr
 Integration scheme           = HPC                                 
    Redo corrector integration= Yes                                 
    DWI Weight Power          =  2
    DWI will use Hessian update vectors when possible.
    Max correction cycles     =  99
 Initial Hessian              = CalcFC
 Hessian evaluation           = All updating
 Hessian updating method      = Bofill                              
 ------------------------------------------------------------------------
 IRC-IRC-IRC-IRC-IRC-IRC-IRC-IRC-IRC-IRC-IRC-IRC-IRC-IRC-IRC-IRC-IRC-IRC
                          Input orientation:                          
 ---------------------------------------------------------------------
 Center     Atomic      Atomic             Coordinates (Angstroms)
 Number     Number       Type             X           Y           Z
 ---------------------------------------------------------------------
      1          6           0        0.000000    0.000000    0.000000
      2          6           0        0.000000    0.000000    1.374669
      3          6           0        1.190276    0.000000    0.687843
      4          1           0       -0.515206    0.321274   -0.893086
      5          1           0       -0.491418   -0.194487    2.313762
      6          1           0        2.249440   -0.193532    0.731511
      7          9           0        0.983011    1.646754    1.702442
 ---------------------------------------------------------------------
                    Distance matrix (angstroms):
                    1          2          3          4          5
     1  C    0.000000
     2  C    1.374669   0.000000
     3  C    1.374731   1.374222   0.000000
     4  H    1.079934   2.347630   2.347600   0.000000
     5  H    2.373355   1.077596   2.347239   3.248146   0.000000
     6  H    2.373298   2.347570   1.077585   3.247708   3.164778
     7  F    2.564453   1.945648   1.945294   3.276937   2.436765
                    6          7
     6  H    0.000000
     7  F    2.435817   0.000000
 Symmetry turned off by external request.
 Stoichiometry    C3H3F
 Framework group  C1[X(C3H3F)]
 Deg. of freedom    15
 Full point group                 C1      NOp   1
 Rotational constants (GHZ):     18.5910503      7.3298520      6.7817825
 Standard basis: 6-31G(d) (6D, 7F)
    66 basis functions,   124 primitive gaussians,    66 cartesian basis functions
    15 alpha electrons       15 beta electrons
       nuclear repulsion energy       104.8726204601 Hartrees.
 NAtoms=    7 NActive=    7 NUniq=    7 SFac= 1.00D+00 NAtFMM=   60 NAOKFM=F Big=F
 Integral buffers will be    131072 words long.
 Raffenetti 2 integral format.
 Two-electron integral symmetry is turned off.
 One-electron integrals computed using PRISM.
 NBasis=    66 RedAO= T EigKep=  2.80D-03  NBF=    66
 NBsUse=    66 1.00D-06 EigRej= -1.00D+00 NBFU=    66
 ExpMin= 1.61D-01 ExpMax= 7.00D+03 ExpMxC= 1.05D+03 IAcc=1 IRadAn=         1 AccDes= 0.00D+00
 Harris functional with IExCor=  402 and IRadAn=       1 diagonalized for initial guess.
 HarFok:  IExCor=  402 AccDes= 0.00D+00 IRadAn=         1 IDoV= 1 UseB2=F ITyADJ=14
 ICtDFT=  3500011 ScaDFX=  1.000000  1.000000  1.000000  1.000000
 FoFCou: FMM=F IPFlag=           0 FMFlag=      100000 FMFlg1=           0
         NFxFlg=           0 DoJE=T BraDBF=F KetDBF=T FulRan=T
         wScrn=  0.000000 ICntrl=     500 IOpCl=  0 I1Cent=   200000004 NGrid=           0
         NMat0=    1 NMatS0=      1 NMatT0=    0 NMatD0=    1 NMtDS0=    0 NMtDT0=    0
 Symmetry not used in FoFCou.
 Keep R1 ints in memory in canonical form, NReq=3363442.
 Requested convergence on RMS density matrix=1.00D-08 within 128 cycles.
 Requested convergence on MAX density matrix=1.00D-06.
 Requested convergence on             energy=1.00D-06.
 No special actions if energy rises.
 Integral accuracy reduced to 1.0D-05 until final iterations.
 Initial convergence to 1.0D-05 achieved.  Increase integral accuracy.
 SCF Done:  E(RB3LYP) =  -215.778471914     A.U. after   15 cycles
            NFock= 15  Conv=0.38D-08     -V/T= 2.0080
 DoSCS=F DFT=T ScalE2(SS,OS)=  1.000000  1.000000
 Range of M.O.s used for correlation:     1    66
 NBasis=    66 NAE=    15 NBE=    15 NFC=     0 NFV=     0
 NROrb=     66 NOA=    15 NOB=    15 NVA=    51 NVB=    51
 Symmetrizing basis deriv contribution to polar:
 IMax=3 JMax=2 DiffMx= 0.00D+00
 G2DrvN: will do     8 centers at a time, making    1 passes.
 Calling FoFCou, ICntrl=  3107 FMM=F I1Cent=   0 AccDes= 0.00D+00.
 End of G2Drv F.D. properties file   721 does not exist.
 End of G2Drv F.D. properties file   722 does not exist.
 End of G2Drv F.D. properties file   788 does not exist.
          IDoAtm=1111111
          Differentiating once with respect to nuclear coordinates.
 Keep R1 ints in memory in canonical form, NReq=3331676.
          There are    24 degrees of freedom in the 1st order CPHF.  IDoFFX=6 NUNeed=     0.
     18 vectors produced by pass  0 Test12= 3.19D-15 4.17D-09 XBig12= 1.08D-01 1.43D-01.
 AX will form    18 AO Fock derivatives at one time.
     18 vectors produced by pass  1 Test12= 3.19D-15 4.17D-09 XBig12= 1.38D-02 4.41D-02.
     18 vectors produced by pass  2 Test12= 3.19D-15 4.17D-09 XBig12= 4.39D-04 3.89D-03.
     18 vectors produced by pass  3 Test12= 3.19D-15 4.17D-09 XBig12= 2.82D-06 4.57D-04.
     18 vectors produced by pass  4 Test12= 3.19D-15 4.17D-09 XBig12= 5.87D-09 2.04D-05.
     17 vectors produced by pass  5 Test12= 3.19D-15 4.17D-09 XBig12= 4.89D-12 4.25D-07.
      4 vectors produced by pass  6 Test12= 3.19D-15 4.17D-09 XBig12= 3.67D-15 1.03D-08.
 InvSVY:  IOpt=1 It=  1 EMax= 2.22D-15
 Solved reduced A of dimension   111 with    18 vectors.
 End of Minotr F.D. properties file   721 does not exist.
 End of Minotr F.D. properties file   722 does not exist.
 End of Minotr F.D. properties file   788 does not exist.

 **********************************************************************

            Population analysis using the SCF density.

 **********************************************************************

 Alpha  occ. eigenvalues --  -24.55557 -10.27289 -10.27222 -10.23323  -1.02204
 Alpha  occ. eigenvalues --   -0.92831  -0.61402  -0.60690  -0.54947  -0.42588
 Alpha  occ. eigenvalues --   -0.37937  -0.37242  -0.28829  -0.26613  -0.23164
 Alpha virt. eigenvalues --   -0.01341  -0.00598   0.10692   0.11759   0.12328
 Alpha virt. eigenvalues --    0.17060   0.27716   0.29388   0.45087   0.51379
 Alpha virt. eigenvalues --    0.53232   0.55309   0.60749   0.60985   0.69189
 Alpha virt. eigenvalues --    0.73073   0.75240   0.79657   0.92212   0.93712
 Alpha virt. eigenvalues --    0.96910   1.11595   1.16763   1.22677   1.30204
 Alpha virt. eigenvalues --    1.39774   1.40996   1.46735   1.53033   1.53537
 Alpha virt. eigenvalues --    1.77313   1.80111   1.83281   1.95310   1.97291
 Alpha virt. eigenvalues --    2.02417   2.03249   2.21014   2.24458   2.25775
 Alpha virt. eigenvalues --    2.27441   2.44240   2.48058   2.64775   2.76124
 Alpha virt. eigenvalues --    2.76324   2.83911   3.87026   4.15487   4.30133
 Alpha virt. eigenvalues --    4.34928
          Condensed to atoms (all electrons):
               1          2          3          4          5          6
     1  C    5.209446   0.364112   0.364036   0.365096  -0.042978  -0.042972
     2  C    0.364112   4.828120   0.394369  -0.031117   0.362372  -0.024563
     3  C    0.364036   0.394369   4.827897  -0.031138  -0.024573   0.362391
     4  H    0.365096  -0.031117  -0.031138   0.524083  -0.000641  -0.000641
     5  H   -0.042978   0.362372  -0.024573  -0.000641   0.535939  -0.001312
     6  H   -0.042972  -0.024563   0.362391  -0.000641  -0.001312   0.535930
     7  F   -0.048404   0.062755   0.062824  -0.001279  -0.010821  -0.010841
               7
     1  C   -0.048404
     2  C    0.062755
     3  C    0.062824
     4  H   -0.001279
     5  H   -0.010821
     6  H   -0.010841
     7  F    9.405233
 Mulliken charges:
               1
     1  C   -0.168337
     2  C    0.043951
     3  C    0.044192
     4  H    0.175638
     5  H    0.182014
     6  H    0.182009
     7  F   -0.459467
 Sum of Mulliken charges =   0.00000
 Mulliken charges with hydrogens summed into heavy atoms:
               1
     1  C    0.007301
     2  C    0.225965
     3  C    0.226202
     7  F   -0.459467
 APT charges:
               1
     1  C   -0.547726
     2  C   -0.294324
     3  C   -0.293996
     4  H    0.367301
     5  H    0.603656
     6  H    0.603601
     7  F   -0.438512
 Sum of APT charges =   0.00000
 APT charges with hydrogens summed into heavy atoms:
               1
     1  C   -0.180425
     2  C    0.309332
     3  C    0.309605
     7  F   -0.438512
 Electronic spatial extent (au):  <R**2>=            389.7135
 Charge=              0.0000 electrons
 Dipole moment (field-independent basis, Debye):
    X=             -0.7212    Y=             -3.0803    Z=             -1.2492  Tot=              3.4013
 Quadrupole moment (field-independent basis, Debye-Ang):
   XX=            -20.0031   YY=            -28.3225   ZZ=            -22.9248
   XY=             -3.6896   XZ=             -2.5319   YZ=             -6.3924
 Traceless Quadrupole moment (field-independent basis, Debye-Ang):
   XX=              3.7471   YY=             -4.5724   ZZ=              0.8253
   XY=             -3.6896   XZ=             -2.5319   YZ=             -6.3924
 Octapole moment (field-independent basis, Debye-Ang**2):
  XXX=            -27.2105  YYY=            -33.7055  ZZZ=            -61.6447  XYY=            -17.2541
  XXY=            -12.0894  XXZ=            -20.5483  XZZ=            -20.2352  YZZ=            -18.6320
  YYZ=            -29.8862  XYZ=             -5.6624
 Hexadecapole moment (field-independent basis, Debye-Ang**3):
 XXXX=            -91.5781 YYYY=           -117.1457 ZZZZ=           -197.6621 XXXY=            -28.4936
 XXXZ=            -35.4867 YYYX=            -32.3109 YYYZ=            -55.9510 ZZZX=            -56.3749
 ZZZY=            -59.8981 XXYY=            -41.1845 XXZZ=            -56.2478 YYZZ=            -67.2178
 XXYZ=            -19.9635 YYXZ=            -22.5486 ZZXY=            -17.6134
 N-N= 1.048726204601D+02 E-N=-7.171784287675D+02  KE= 2.140564774816D+02
  Exact polarizability:   0.000   0.000   0.000   0.000   0.000   0.000
 Approx polarizability:  49.139  10.970  47.203   9.428  18.999  60.034
 Calling FoFJK, ICntrl=    100147 FMM=F ISym2X=0 I1Cent= 0 IOpClX= 0 NMat=1 NMatS=1 NMatT=0.
 -------------------------------------------------------------------
 Center     Atomic                   Forces (Hartrees/Bohr)
 Number     Number              X              Y              Z
 -------------------------------------------------------------------
      1        6          -0.000001126   -0.000061849   -0.000008952
      2        6           0.000044003   -0.000090991    0.000001034
      3        6          -0.000002103    0.000097407   -0.000010053
      4        1          -0.000008146    0.000036748    0.000013569
      5        1          -0.000025026    0.000065809    0.000003554
      6        1          -0.000004051   -0.000005635    0.000014502
      7        9          -0.000003551   -0.000041490   -0.000013654
 -------------------------------------------------------------------
 Cartesian Forces:  Max     0.000097407 RMS     0.000039320
 -----------------------------------------------------------------------------------------------
                       Internal Coordinate Forces (Hartree/Bohr or radian)
  Cent   Atom   N1       Length/X         N2         Alpha/Y        N3         Beta/Z          J
 -----------------------------------------------------------------------------------------------
      1  C 
      2  C        1   0.000005(     1)
      3  C        1  -0.000013(     2)      2  -0.000033(     7)
      4  H        1   0.000004(     3)      2  -0.000060(     8)      3   0.000031(    12)     0
      5  H        2   0.000003(     4)      1   0.000005(     9)      3  -0.000070(    13)     0
      6  H        3  -0.000002(     5)      1   0.000024(    10)      2  -0.000011(    14)     0
      7  F        3  -0.000042(     6)      1  -0.000011(    11)      2   0.000046(    15)     0
 -----------------------------------------------------------------------------------------------
 Internal  Forces:  Max     0.000070311 RMS     0.000032160
 IRC-IRC-IRC-IRC-IRC-IRC-IRC-IRC-IRC-IRC-IRC-IRC-IRC-IRC-IRC-IRC-IRC-IRC
          ******** Start new reaction path calculation ********
 Supplied step size of   0.1000 bohr.
    Integration on MW PES will use step size of   0.3214 sqrt(amu)*bohr.
 Point Number:   0          Path Number:   1
 Calculating another point on the path.
 IRC-IRC-IRC-IRC-IRC-IRC-IRC-IRC-IRC-IRC-IRC-IRC-IRC-IRC-IRC-IRC-IRC-IRC
                          Input orientation:                          
 ---------------------------------------------------------------------
 Center     Atomic      Atomic             Coordinates (Angstroms)
 Number     Number       Type             X           Y           Z
 ---------------------------------------------------------------------
      1          6           0       -0.586036   -0.538051   -1.023466
      2          6           0       -0.575086   -0.511142    0.361358
      3          6           0        0.600920   -0.564972   -0.350188
      4          1           0       -1.102096   -0.216752   -1.916050
      5          1           0       -1.066266   -0.726260    1.296808
      6          1           0        1.663355   -0.737790   -0.304870
      7          9           0        0.380631    1.108722    0.688420
 ---------------------------------------------------------------------
                    Distance matrix (angstroms):
                    1          2          3          4          5
     1  C    0.000000
     2  C    1.385129   0.000000
     3  C    1.364878   1.375568   0.000000
     4  H    1.079934   2.356055   2.339539   0.000000
     5  H    2.376913   1.078239   2.349068   3.253205   0.000000
     6  H    2.369818   2.346455   1.077352   3.242699   3.164860
     7  F    2.564539   1.909011   1.982041   3.276984   2.414706
                    6          7
     6  H    0.000000
     7  F    2.457969   0.000000
 Symmetry turned off by external request.
 Stoichiometry    C3H3F
 Framework group  C1[X(C3H3F)]
 Deg. of freedom    15
 Full point group                 C1      NOp   1
 Rotational constants (GHZ):     18.6030188      7.3259313      6.7781519
 Standard basis: 6-31G(d) (6D, 7F)
    66 basis functions,   124 primitive gaussians,    66 cartesian basis functions
    15 alpha electrons       15 beta electrons
       nuclear repulsion energy       104.8620476275 Hartrees.
 NAtoms=    7 NActive=    7 NUniq=    7 SFac= 1.00D+00 NAtFMM=   60 NAOKFM=F Big=F
 Integral buffers will be    131072 words long.
 Raffenetti 2 integral format.
 Two-electron integral symmetry is turned off.
 One-electron integrals computed using PRISM.
 NBasis=    66 RedAO= T EigKep=  2.77D-03  NBF=    66
 NBsUse=    66 1.00D-06 EigRej= -1.00D+00 NBFU=    66
 Initial guess from the checkpoint file:  "/scratch/hollas/g09_15697/Gau-15703.chk"
 B after Tr=    -1.114843   -1.016769   -1.929788
         Rot=    1.000000    0.000012   -0.000434    0.000016 Ang=   0.05 deg.
 ExpMin= 1.61D-01 ExpMax= 7.00D+03 ExpMxC= 1.05D+03 IAcc=1 IRadAn=         1 AccDes= 0.00D+00
 Harris functional with IExCor=  402 and IRadAn=       1 diagonalized for initial guess.
 HarFok:  IExCor=  402 AccDes= 0.00D+00 IRadAn=         1 IDoV= 1 UseB2=F ITyADJ=14
 ICtDFT=  3500011 ScaDFX=  1.000000  1.000000  1.000000  1.000000
 FoFCou: FMM=F IPFlag=           0 FMFlag=      100000 FMFlg1=           0
         NFxFlg=           0 DoJE=T BraDBF=F KetDBF=T FulRan=T
         wScrn=  0.000000 ICntrl=     500 IOpCl=  0 I1Cent=   200000004 NGrid=           0
         NMat0=    1 NMatS0=      1 NMatT0=    0 NMatD0=    1 NMtDS0=    0 NMtDT0=    0
 Symmetry not used in FoFCou.
 Keep R1 ints in memory in canonical form, NReq=3363442.
 Requested convergence on RMS density matrix=1.00D-08 within 128 cycles.
 Requested convergence on MAX density matrix=1.00D-06.
 Requested convergence on             energy=1.00D-06.
 No special actions if energy rises.
 Integral accuracy reduced to 1.0D-05 until final iterations.
 Initial convergence to 1.0D-05 achieved.  Increase integral accuracy.
 SCF Done:  E(RB3LYP) =  -215.779363686     A.U. after   13 cycles
            NFock= 13  Conv=0.67D-08     -V/T= 2.0081
 DoSCS=F DFT=T ScalE2(SS,OS)=  1.000000  1.000000
 Range of M.O.s used for correlation:     1    66
 NBasis=    66 NAE=    15 NBE=    15 NFC=     0 NFV=     0
 NROrb=     66 NOA=    15 NOB=    15 NVA=    51 NVB=    51
 Symmetrizing basis deriv contribution to polar:
 IMax=3 JMax=2 DiffMx= 0.00D+00
 Calling FoFJK, ICntrl=      2147 FMM=F ISym2X=0 I1Cent= 0 IOpClX= 0 NMat=1 NMatS=1 NMatT=0.
 -------------------------------------------------------------------
 Center     Atomic                   Forces (Hartrees/Bohr)
 Number     Number              X              Y              Z
 -------------------------------------------------------------------
      1        6           0.001517093    0.000139529   -0.000500539
      2        6           0.006548695    0.010845263    0.002872651
      3        6          -0.000407222   -0.010038813   -0.005927303
      4        1           0.000054091   -0.000051768   -0.000086796
      5        1           0.000463654    0.000207816    0.000016007
      6        1           0.000002973   -0.000309648   -0.000557810
      7        9          -0.008179284   -0.000792379    0.004183790
 -------------------------------------------------------------------
 Cartesian Forces:  Max     0.010845263 RMS     0.004326643
 -----------------------------------------------------------------------------------------------
                       Internal Coordinate Forces (Hartree/Bohr or radian)
  Cent   Atom   N1       Length/X         N2         Alpha/Y        N3         Beta/Z          J
 -----------------------------------------------------------------------------------------------
      1  C 
      2  C        1   0.002889(     1)
      3  C        1  -0.008583(     2)      2  -0.018908(     7)
      4  H        1   0.000031(     3)      2   0.000223(     8)      3  -0.000018(    12)     0
      5  H        2  -0.000235(     4)      1   0.000917(     9)      3  -0.000023(    13)     0
      6  H        3   0.000036(     5)      1  -0.001277(    10)      2  -0.000111(    14)     0
      7  F        3   0.002383(     6)      1  -0.020104(    11)      2   0.025479(    15)     0
 -----------------------------------------------------------------------------------------------
 Internal  Forces:  Max     0.025478831 RMS     0.010003767
 IRC-IRC-IRC-IRC-IRC-IRC-IRC-IRC-IRC-IRC-IRC-IRC-IRC-IRC-IRC-IRC-IRC-IRC
 Pt  1 Step number   1 out of a maximum of  99
 Modified Bulirsch-Stoer Extrapolation Cycles:
    EPS =    0.000010000000000
 Maximum DWI energy   std dev =  0.000002064 at pt     1
 Maximum DWI gradient std dev =  0.045845071 at pt     1
 CORRECTOR INTEGRATION CONVERGENCE:
   Recorrection delta-x convergence threshold:    0.010000
   Delta-x Convergence Met
 Point Number:   1          Path Number:   1
   CHANGE IN THE REACTION COORDINATE =    0.32131
   NET REACTION COORDINATE UP TO THIS POINT =    0.32131
  # OF POINTS ALONG THE PATH =   1
  # OF STEPS =   1

 Calculating another point on the path.
 IRC-IRC-IRC-IRC-IRC-IRC-IRC-IRC-IRC-IRC-IRC-IRC-IRC-IRC-IRC-IRC-IRC-IRC
                          Input orientation:                          
 ---------------------------------------------------------------------
 Center     Atomic      Atomic             Coordinates (Angstroms)
 Number     Number       Type             X           Y           Z
 ---------------------------------------------------------------------
      1          6           0       -0.582310   -0.537553   -1.025108
      2          6           0       -0.559595   -0.483342    0.369440
      3          6           0        0.601035   -0.590755   -0.366023
      4          1           0       -1.099719   -0.218350   -1.917722
      5          1           0       -1.051676   -0.720296    1.300143
      6          1           0        1.665978   -0.746411   -0.320798
      7          9           0        0.367406    1.107358    0.695097
 ---------------------------------------------------------------------
                    Distance matrix (angstroms):
                    1          2          3          4          5
     1  C    0.000000
     2  C    1.395786   0.000000
     3  C    1.355555   1.378226   0.000000
     4  H    1.079983   2.364967   2.332171   0.000000
     5  H    2.379178   1.079119   2.350392   3.257133   0.000000
     6  H    2.365264   2.344954   1.077208   3.236989   3.164455
     7  F    2.562576   1.869682   2.015972   3.276703   2.391693
                    6          7
     6  H    0.000000
     7  F    2.480885   0.000000
 Symmetry turned off by external request.
 Stoichiometry    C3H3F
 Framework group  C1[X(C3H3F)]
 Deg. of freedom    15
 Full point group                 C1      NOp   1
 Rotational constants (GHZ):     18.6637132      7.3277413      6.7798712
 Standard basis: 6-31G(d) (6D, 7F)
    66 basis functions,   124 primitive gaussians,    66 cartesian basis functions
    15 alpha electrons       15 beta electrons
       nuclear repulsion energy       104.9068699214 Hartrees.
 NAtoms=    7 NActive=    7 NUniq=    7 SFac= 1.00D+00 NAtFMM=   60 NAOKFM=F Big=F
 Integral buffers will be    131072 words long.
 Raffenetti 2 integral format.
 Two-electron integral symmetry is turned off.
 One-electron integrals computed using PRISM.
 NBasis=    66 RedAO= T EigKep=  2.72D-03  NBF=    66
 NBsUse=    66 1.00D-06 EigRej= -1.00D+00 NBFU=    66
 Initial guess from the checkpoint file:  "/scratch/hollas/g09_15697/Gau-15703.chk"
 B after Tr=     0.001092   -0.000088   -0.000694
         Rot=    1.000000    0.000030   -0.000439    0.000025 Ang=   0.05 deg.
 ExpMin= 1.61D-01 ExpMax= 7.00D+03 ExpMxC= 1.05D+03 IAcc=1 IRadAn=         1 AccDes= 0.00D+00
 Harris functional with IExCor=  402 and IRadAn=       1 diagonalized for initial guess.
 HarFok:  IExCor=  402 AccDes= 0.00D+00 IRadAn=         1 IDoV= 1 UseB2=F ITyADJ=14
 ICtDFT=  3500011 ScaDFX=  1.000000  1.000000  1.000000  1.000000
 FoFCou: FMM=F IPFlag=           0 FMFlag=      100000 FMFlg1=           0
         NFxFlg=           0 DoJE=T BraDBF=F KetDBF=T FulRan=T
         wScrn=  0.000000 ICntrl=     500 IOpCl=  0 I1Cent=   200000004 NGrid=           0
         NMat0=    1 NMatS0=      1 NMatT0=    0 NMatD0=    1 NMtDS0=    0 NMtDT0=    0
 Symmetry not used in FoFCou.
 Keep R1 ints in memory in canonical form, NReq=3363442.
 Requested convergence on RMS density matrix=1.00D-08 within 128 cycles.
 Requested convergence on MAX density matrix=1.00D-06.
 Requested convergence on             energy=1.00D-06.
 No special actions if energy rises.
 Integral accuracy reduced to 1.0D-05 until final iterations.
 Initial convergence to 1.0D-05 achieved.  Increase integral accuracy.
 SCF Done:  E(RB3LYP) =  -215.781983364     A.U. after   14 cycles
            NFock= 14  Conv=0.14D-08     -V/T= 2.0081
 DoSCS=F DFT=T ScalE2(SS,OS)=  1.000000  1.000000
 Range of M.O.s used for correlation:     1    66
 NBasis=    66 NAE=    15 NBE=    15 NFC=     0 NFV=     0
 NROrb=     66 NOA=    15 NOB=    15 NVA=    51 NVB=    51
 Symmetrizing basis deriv contribution to polar:
 IMax=3 JMax=2 DiffMx= 0.00D+00
 Calling FoFJK, ICntrl=      2147 FMM=F ISym2X=0 I1Cent= 0 IOpClX= 0 NMat=1 NMatS=1 NMatT=0.
 -------------------------------------------------------------------
 Center     Atomic                   Forces (Hartrees/Bohr)
 Number     Number              X              Y              Z
 -------------------------------------------------------------------
      1        6           0.002758857    0.000675788   -0.000629153
      2        6           0.012922538    0.021314692    0.005269043
      3        6          -0.000722894   -0.018835195   -0.010802308
      4        1           0.000098166   -0.000237363   -0.000190148
      5        1           0.000960594    0.000294341   -0.000054599
      6        1           0.000056227   -0.000737224   -0.001124938
      7        9          -0.016073488   -0.002475038    0.007532104
 -------------------------------------------------------------------
 Cartesian Forces:  Max     0.021314692 RMS     0.008319952
 -----------------------------------------------------------------------------------------------
                       Internal Coordinate Forces (Hartree/Bohr or radian)
  Cent   Atom   N1       Length/X         N2         Alpha/Y        N3         Beta/Z          J
 -----------------------------------------------------------------------------------------------
      1  C 
      2  C        1   0.005214(     1)
      3  C        1  -0.016693(     2)      2  -0.037485(     7)
      4  H        1   0.000040(     3)      2   0.000571(     8)      3  -0.000171(    12)     0
      5  H        2  -0.000539(     4)      1   0.001723(     9)      3   0.000080(    13)     0
      6  H        3   0.000142(     5)      1  -0.002647(    10)      2  -0.000319(    14)     0
      7  F        3   0.003546(     6)      1  -0.040079(    11)      2   0.049915(    15)     0
 -----------------------------------------------------------------------------------------------
 Internal  Forces:  Max     0.049915088 RMS     0.019718259
 IRC-IRC-IRC-IRC-IRC-IRC-IRC-IRC-IRC-IRC-IRC-IRC-IRC-IRC-IRC-IRC-IRC-IRC
 Pt  2 Step number   1 out of a maximum of  99
 Modified Bulirsch-Stoer Extrapolation Cycles:
    EPS =    0.000010000000000
 Maximum DWI energy   std dev =  0.000005443 at pt    37
 Maximum DWI gradient std dev =  0.033243662 at pt    55
 CORRECTOR INTEGRATION CONVERGENCE:
   Recorrection delta-x convergence threshold:    0.010000
   Delta-x Convergence Met
 Point Number:   2          Path Number:   1
   CHANGE IN THE REACTION COORDINATE =    0.32121
   NET REACTION COORDINATE UP TO THIS POINT =    0.64252
  # OF POINTS ALONG THE PATH =   2
  # OF STEPS =   1

 Calculating another point on the path.
 IRC-IRC-IRC-IRC-IRC-IRC-IRC-IRC-IRC-IRC-IRC-IRC-IRC-IRC-IRC-IRC-IRC-IRC
                          Input orientation:                          
 ---------------------------------------------------------------------
 Center     Atomic      Atomic             Coordinates (Angstroms)
 Number     Number       Type             X           Y           Z
 ---------------------------------------------------------------------
      1          6           0       -0.578692   -0.536386   -1.026213
      2          6           0       -0.543085   -0.454793    0.377067
      3          6           0        0.600975   -0.615524   -0.380720
      4          1           0       -1.097817   -0.222851   -1.919977
      5          1           0       -1.036488   -0.715708    1.301862
      6          1           0        1.667648   -0.758743   -0.338431
      7          9           0        0.353793    1.104879    0.701190
 ---------------------------------------------------------------------
                    Distance matrix (angstroms):
                    1          2          3          4          5
     1  C    0.000000
     2  C    1.406101   0.000000
     3  C    1.347048   1.381647   0.000000
     4  H    1.080097   2.374434   2.325812   0.000000
     5  H    2.379426   1.080171   2.349980   3.259895   0.000000
     6  H    2.359773   2.343430   1.077075   3.230521   3.163031
     7  F    2.558750   1.828120   2.047294   3.277279   2.368170
                    6          7
     6  H    0.000000
     7  F    2.506015   0.000000
 Symmetry turned off by external request.
 Stoichiometry    C3H3F
 Framework group  C1[X(C3H3F)]
 Deg. of freedom    15
 Full point group                 C1      NOp   1
 Rotational constants (GHZ):     18.7763308      7.3335279      6.7858080
 Standard basis: 6-31G(d) (6D, 7F)
    66 basis functions,   124 primitive gaussians,    66 cartesian basis functions
    15 alpha electrons       15 beta electrons
       nuclear repulsion energy       105.0087521761 Hartrees.
 NAtoms=    7 NActive=    7 NUniq=    7 SFac= 1.00D+00 NAtFMM=   60 NAOKFM=F Big=F
 Integral buffers will be    131072 words long.
 Raffenetti 2 integral format.
 Two-electron integral symmetry is turned off.
 One-electron integrals computed using PRISM.
 NBasis=    66 RedAO= T EigKep=  2.67D-03  NBF=    66
 NBsUse=    66 1.00D-06 EigRej= -1.00D+00 NBFU=    66
 Initial guess from the checkpoint file:  "/scratch/hollas/g09_15697/Gau-15703.chk"
 B after Tr=     0.001101   -0.000304   -0.000813
         Rot=    1.000000    0.000048   -0.000460    0.000034 Ang=   0.05 deg.
 ExpMin= 1.61D-01 ExpMax= 7.00D+03 ExpMxC= 1.05D+03 IAcc=1 IRadAn=         1 AccDes= 0.00D+00
 Harris functional with IExCor=  402 and IRadAn=       1 diagonalized for initial guess.
 HarFok:  IExCor=  402 AccDes= 0.00D+00 IRadAn=         1 IDoV= 1 UseB2=F ITyADJ=14
 ICtDFT=  3500011 ScaDFX=  1.000000  1.000000  1.000000  1.000000
 FoFCou: FMM=F IPFlag=           0 FMFlag=      100000 FMFlg1=           0
         NFxFlg=           0 DoJE=T BraDBF=F KetDBF=T FulRan=T
         wScrn=  0.000000 ICntrl=     500 IOpCl=  0 I1Cent=   200000004 NGrid=           0
         NMat0=    1 NMatS0=      1 NMatT0=    0 NMatD0=    1 NMtDS0=    0 NMtDT0=    0
 Symmetry not used in FoFCou.
 Keep R1 ints in memory in canonical form, NReq=3363442.
 Requested convergence on RMS density matrix=1.00D-08 within 128 cycles.
 Requested convergence on MAX density matrix=1.00D-06.
 Requested convergence on             energy=1.00D-06.
 No special actions if energy rises.
 Integral accuracy reduced to 1.0D-05 until final iterations.
 Initial convergence to 1.0D-05 achieved.  Increase integral accuracy.
 SCF Done:  E(RB3LYP) =  -215.786146024     A.U. after   14 cycles
            NFock= 14  Conv=0.18D-08     -V/T= 2.0081
 DoSCS=F DFT=T ScalE2(SS,OS)=  1.000000  1.000000
 Range of M.O.s used for correlation:     1    66
 NBasis=    66 NAE=    15 NBE=    15 NFC=     0 NFV=     0
 NROrb=     66 NOA=    15 NOB=    15 NVA=    51 NVB=    51
 Symmetrizing basis deriv contribution to polar:
 IMax=3 JMax=2 DiffMx= 0.00D+00
 Calling FoFJK, ICntrl=      2147 FMM=F ISym2X=0 I1Cent= 0 IOpClX= 0 NMat=1 NMatS=1 NMatT=0.
 -------------------------------------------------------------------
 Center     Atomic                   Forces (Hartrees/Bohr)
 Number     Number              X              Y              Z
 -------------------------------------------------------------------
      1        6           0.003648467    0.001404650   -0.000607408
      2        6           0.018647028    0.030535712    0.007299461
      3        6          -0.000725849   -0.025793231   -0.014667690
      4        1           0.000105598   -0.000438192   -0.000213574
      5        1           0.001397035    0.000490175   -0.000149795
      6        1           0.000179706   -0.001286630   -0.001590902
      7        9          -0.023251984   -0.004912485    0.009929907
 -------------------------------------------------------------------
 Cartesian Forces:  Max     0.030535712 RMS     0.011751611
 -----------------------------------------------------------------------------------------------
                       Internal Coordinate Forces (Hartree/Bohr or radian)
  Cent   Atom   N1       Length/X         N2         Alpha/Y        N3         Beta/Z          J
 -----------------------------------------------------------------------------------------------
      1  C 
      2  C        1   0.007150(     1)
      3  C        1  -0.023772(     2)      2  -0.054192(     7)
      4  H        1  -0.000004(     3)      2   0.000788(     8)      3  -0.000363(    12)     0
      5  H        2  -0.000856(     4)      1   0.002476(     9)      3   0.000058(    13)     0
      6  H        3   0.000343(     5)      1  -0.003898(    10)      2  -0.000660(    14)     0
      7  F        3   0.003498(     6)      1  -0.058755(    11)      2   0.072077(    15)     0
 -----------------------------------------------------------------------------------------------
 Internal  Forces:  Max     0.072076837 RMS     0.028560710
 IRC-IRC-IRC-IRC-IRC-IRC-IRC-IRC-IRC-IRC-IRC-IRC-IRC-IRC-IRC-IRC-IRC-IRC
 Pt  3 Step number   1 out of a maximum of  99
 Modified Bulirsch-Stoer Extrapolation Cycles:
    EPS =    0.000010000000000
 Maximum DWI energy   std dev =  0.000011920 at pt    36
 Maximum DWI gradient std dev =  0.022626304 at pt    28
 CORRECTOR INTEGRATION CONVERGENCE:
   Recorrection delta-x convergence threshold:    0.010000
   Delta-x Convergence Met
 Point Number:   3          Path Number:   1
   CHANGE IN THE REACTION COORDINATE =    0.32125
   NET REACTION COORDINATE UP TO THIS POINT =    0.96377
  # OF POINTS ALONG THE PATH =   3
  # OF STEPS =   1

 Calculating another point on the path.
 IRC-IRC-IRC-IRC-IRC-IRC-IRC-IRC-IRC-IRC-IRC-IRC-IRC-IRC-IRC-IRC-IRC-IRC
                          Input orientation:                          
 ---------------------------------------------------------------------
 Center     Atomic      Atomic             Coordinates (Angstroms)
 Number     Number       Type             X           Y           Z
 ---------------------------------------------------------------------
      1          6           0       -0.575334   -0.534826   -1.026880
      2          6           0       -0.525764   -0.425863    0.384169
      3          6           0        0.600950   -0.639434   -0.394516
      4          1           0       -1.096648   -0.228435   -1.922013
      5          1           0       -1.021064   -0.710134    1.302270
      6          1           0        1.668945   -0.774265   -0.356617
      7          9           0        0.339847    1.101540    0.706859
 ---------------------------------------------------------------------
                    Distance matrix (angstroms):
                    1          2          3          4          5
     1  C    0.000000
     2  C    1.416118   0.000000
     3  C    1.339578   1.386163   0.000000
     4  H    1.080235   2.383980   2.320346   0.000000
     5  H    2.377887   1.081222   2.348406   3.260943   0.000000
     6  H    2.354436   2.342413   1.077139   3.224422   3.161039
     7  F    2.553644   1.785041   2.076581   3.277700   2.342809
                    6          7
     6  H    0.000000
     7  F    2.533007   0.000000
 Symmetry turned off by external request.
 Stoichiometry    C3H3F
 Framework group  C1[X(C3H3F)]
 Deg. of freedom    15
 Full point group                 C1      NOp   1
 Rotational constants (GHZ):     18.9328657      7.3417361      6.7926363
 Standard basis: 6-31G(d) (6D, 7F)
    66 basis functions,   124 primitive gaussians,    66 cartesian basis functions
    15 alpha electrons       15 beta electrons
       nuclear repulsion energy       105.1511292045 Hartrees.
 NAtoms=    7 NActive=    7 NUniq=    7 SFac= 1.00D+00 NAtFMM=   60 NAOKFM=F Big=F
 Integral buffers will be    131072 words long.
 Raffenetti 2 integral format.
 Two-electron integral symmetry is turned off.
 One-electron integrals computed using PRISM.
 NBasis=    66 RedAO= T EigKep=  2.63D-03  NBF=    66
 NBsUse=    66 1.00D-06 EigRej= -1.00D+00 NBFU=    66
 Initial guess from the checkpoint file:  "/scratch/hollas/g09_15697/Gau-15703.chk"
 B after Tr=     0.001089   -0.000381   -0.000854
         Rot=    1.000000    0.000083   -0.000452    0.000086 Ang=   0.05 deg.
 ExpMin= 1.61D-01 ExpMax= 7.00D+03 ExpMxC= 1.05D+03 IAcc=1 IRadAn=         1 AccDes= 0.00D+00
 Harris functional with IExCor=  402 and IRadAn=       1 diagonalized for initial guess.
 HarFok:  IExCor=  402 AccDes= 0.00D+00 IRadAn=         1 IDoV= 1 UseB2=F ITyADJ=14
 ICtDFT=  3500011 ScaDFX=  1.000000  1.000000  1.000000  1.000000
 FoFCou: FMM=F IPFlag=           0 FMFlag=      100000 FMFlg1=           0
         NFxFlg=           0 DoJE=T BraDBF=F KetDBF=T FulRan=T
         wScrn=  0.000000 ICntrl=     500 IOpCl=  0 I1Cent=   200000004 NGrid=           0
         NMat0=    1 NMatS0=      1 NMatT0=    0 NMatD0=    1 NMtDS0=    0 NMtDT0=    0
 Symmetry not used in FoFCou.
 Keep R1 ints in memory in canonical form, NReq=3363442.
 Requested convergence on RMS density matrix=1.00D-08 within 128 cycles.
 Requested convergence on MAX density matrix=1.00D-06.
 Requested convergence on             energy=1.00D-06.
 No special actions if energy rises.
 Integral accuracy reduced to 1.0D-05 until final iterations.
 Initial convergence to 1.0D-05 achieved.  Increase integral accuracy.
 SCF Done:  E(RB3LYP) =  -215.791589032     A.U. after   14 cycles
            NFock= 14  Conv=0.19D-08     -V/T= 2.0082
 DoSCS=F DFT=T ScalE2(SS,OS)=  1.000000  1.000000
 Range of M.O.s used for correlation:     1    66
 NBasis=    66 NAE=    15 NBE=    15 NFC=     0 NFV=     0
 NROrb=     66 NOA=    15 NOB=    15 NVA=    51 NVB=    51
 Symmetrizing basis deriv contribution to polar:
 IMax=3 JMax=2 DiffMx= 0.00D+00
 Calling FoFJK, ICntrl=      2147 FMM=F ISym2X=0 I1Cent= 0 IOpClX= 0 NMat=1 NMatS=1 NMatT=0.
 -------------------------------------------------------------------
 Center     Atomic                   Forces (Hartrees/Bohr)
 Number     Number              X              Y              Z
 -------------------------------------------------------------------
      1        6           0.004201445    0.002295231   -0.000304124
      2        6           0.023905285    0.038139054    0.008451726
      3        6          -0.000729805   -0.030712146   -0.017042485
      4        1           0.000083618   -0.000650384   -0.000212764
      5        1           0.001740076    0.000709094   -0.000210570
      6        1           0.000209681   -0.001940445   -0.002030654
      7        9          -0.029410299   -0.007840404    0.011348871
 -------------------------------------------------------------------
 Cartesian Forces:  Max     0.038139054 RMS     0.014510960
 -----------------------------------------------------------------------------------------------
                       Internal Coordinate Forces (Hartree/Bohr or radian)
  Cent   Atom   N1       Length/X         N2         Alpha/Y        N3         Beta/Z          J
 -----------------------------------------------------------------------------------------------
      1  C 
      2  C        1   0.008241(     1)
      3  C        1  -0.029779(     2)      2  -0.069392(     7)
      4  H        1  -0.000057(     3)      2   0.000945(     8)      3  -0.000582(    12)     0
      5  H        2  -0.001105(     4)      1   0.003124(     9)      3  -0.000019(    13)     0
      6  H        3   0.000472(     5)      1  -0.005170(    10)      2  -0.001123(    14)     0
      7  F        3   0.002416(     6)      1  -0.075312(    11)      2   0.090923(    15)     0
 -----------------------------------------------------------------------------------------------
 Internal  Forces:  Max     0.090923098 RMS     0.036290647
 IRC-IRC-IRC-IRC-IRC-IRC-IRC-IRC-IRC-IRC-IRC-IRC-IRC-IRC-IRC-IRC-IRC-IRC
 Pt  4 Step number   1 out of a maximum of  99
 Modified Bulirsch-Stoer Extrapolation Cycles:
    EPS =    0.000010000000000
 Maximum DWI energy   std dev =  0.000015798 at pt    36
 Maximum DWI gradient std dev =  0.017475557 at pt    38
 CORRECTOR INTEGRATION CONVERGENCE:
   Recorrection delta-x convergence threshold:    0.010000
   Delta-x Convergence Met
 Point Number:   4          Path Number:   1
   CHANGE IN THE REACTION COORDINATE =    0.32126
   NET REACTION COORDINATE UP TO THIS POINT =    1.28504
  # OF POINTS ALONG THE PATH =   4
  # OF STEPS =   1

 Calculating another point on the path.
 IRC-IRC-IRC-IRC-IRC-IRC-IRC-IRC-IRC-IRC-IRC-IRC-IRC-IRC-IRC-IRC-IRC-IRC
                          Input orientation:                          
 ---------------------------------------------------------------------
 Center     Atomic      Atomic             Coordinates (Angstroms)
 Number     Number       Type             X           Y           Z
 ---------------------------------------------------------------------
      1          6           0       -0.572235   -0.532848   -1.027122
      2          6           0       -0.507618   -0.396686    0.390687
      3          6           0        0.600932   -0.662426   -0.407321
      4          1           0       -1.096072   -0.234859   -1.923790
      5          1           0       -1.005216   -0.703299    1.301647
      6          1           0        1.669782   -0.793328   -0.375639
      7          9           0        0.325566    1.097364    0.712089
 ---------------------------------------------------------------------
                    Distance matrix (angstroms):
                    1          2          3          4          5
     1  C    0.000000
     2  C    1.425797   0.000000
     3  C    1.333141   1.391516   0.000000
     4  H    1.080377   2.393589   2.315667   0.000000
     5  H    2.374803   1.082342   2.345625   3.260542   0.000000
     6  H    2.349238   2.342146   1.077302   3.218478   3.158640
     7  F    2.547252   1.740597   2.103750   3.277763   2.315371
                    6          7
     6  H    0.000000
     7  F    2.562183   0.000000
 Symmetry turned off by external request.
 Stoichiometry    C3H3F
 Framework group  C1[X(C3H3F)]
 Deg. of freedom    15
 Full point group                 C1      NOp   1
 Rotational constants (GHZ):     19.1326075      7.3533457      6.8000918
 Standard basis: 6-31G(d) (6D, 7F)
    66 basis functions,   124 primitive gaussians,    66 cartesian basis functions
    15 alpha electrons       15 beta electrons
       nuclear repulsion energy       105.3378447599 Hartrees.
 NAtoms=    7 NActive=    7 NUniq=    7 SFac= 1.00D+00 NAtFMM=   60 NAOKFM=F Big=F
 Integral buffers will be    131072 words long.
 Raffenetti 2 integral format.
 Two-electron integral symmetry is turned off.
 One-electron integrals computed using PRISM.
 NBasis=    66 RedAO= T EigKep=  2.60D-03  NBF=    66
 NBsUse=    66 1.00D-06 EigRej= -1.00D+00 NBFU=    66
 Initial guess from the checkpoint file:  "/scratch/hollas/g09_15697/Gau-15703.chk"
 B after Tr=     0.001087   -0.000452   -0.000894
         Rot=    1.000000    0.000117   -0.000448    0.000146 Ang=   0.06 deg.
 ExpMin= 1.61D-01 ExpMax= 7.00D+03 ExpMxC= 1.05D+03 IAcc=1 IRadAn=         1 AccDes= 0.00D+00
 Harris functional with IExCor=  402 and IRadAn=       1 diagonalized for initial guess.
 HarFok:  IExCor=  402 AccDes= 0.00D+00 IRadAn=         1 IDoV= 1 UseB2=F ITyADJ=14
 ICtDFT=  3500011 ScaDFX=  1.000000  1.000000  1.000000  1.000000
 FoFCou: FMM=F IPFlag=           0 FMFlag=      100000 FMFlg1=           0
         NFxFlg=           0 DoJE=T BraDBF=F KetDBF=T FulRan=T
         wScrn=  0.000000 ICntrl=     500 IOpCl=  0 I1Cent=   200000004 NGrid=           0
         NMat0=    1 NMatS0=      1 NMatT0=    0 NMatD0=    1 NMtDS0=    0 NMtDT0=    0
 Symmetry not used in FoFCou.
 Keep R1 ints in memory in canonical form, NReq=3363442.
 Requested convergence on RMS density matrix=1.00D-08 within 128 cycles.
 Requested convergence on MAX density matrix=1.00D-06.
 Requested convergence on             energy=1.00D-06.
 No special actions if energy rises.
 Integral accuracy reduced to 1.0D-05 until final iterations.
 Initial convergence to 1.0D-05 achieved.  Increase integral accuracy.
 SCF Done:  E(RB3LYP) =  -215.798029983     A.U. after   13 cycles
            NFock= 13  Conv=0.80D-08     -V/T= 2.0083
 DoSCS=F DFT=T ScalE2(SS,OS)=  1.000000  1.000000
 Range of M.O.s used for correlation:     1    66
 NBasis=    66 NAE=    15 NBE=    15 NFC=     0 NFV=     0
 NROrb=     66 NOA=    15 NOB=    15 NVA=    51 NVB=    51
 Symmetrizing basis deriv contribution to polar:
 IMax=3 JMax=2 DiffMx= 0.00D+00
 Calling FoFJK, ICntrl=      2147 FMM=F ISym2X=0 I1Cent= 0 IOpClX= 0 NMat=1 NMatS=1 NMatT=0.
 -------------------------------------------------------------------
 Center     Atomic                   Forces (Hartrees/Bohr)
 Number     Number              X              Y              Z
 -------------------------------------------------------------------
      1        6           0.004479076    0.003259885    0.000188127
      2        6           0.028434146    0.043818999    0.008889217
      3        6          -0.000785759   -0.033762314   -0.018149896
      4        1           0.000025343   -0.000833798   -0.000181064
      5        1           0.002007904    0.000972014   -0.000302907
      6        1           0.000194605   -0.002643585   -0.002400616
      7        9          -0.034355316   -0.010811201    0.011957138
 -------------------------------------------------------------------
 Cartesian Forces:  Max     0.043818999 RMS     0.016571644
 -----------------------------------------------------------------------------------------------
                       Internal Coordinate Forces (Hartree/Bohr or radian)
  Cent   Atom   N1       Length/X         N2         Alpha/Y        N3         Beta/Z          J
 -----------------------------------------------------------------------------------------------
      1  C 
      2  C        1   0.008586(     1)
      3  C        1  -0.034557(     2)      2  -0.082461(     7)
      4  H        1  -0.000110(     3)      2   0.000989(     8)      3  -0.000796(    12)     0
      5  H        2  -0.001355(     4)      1   0.003645(     9)      3  -0.000165(    13)     0
      6  H        3   0.000569(     5)      1  -0.006341(    10)      2  -0.001663(    14)     0
      7  F        3   0.000745(     6)      1  -0.089093(    11)      2   0.105775(    15)     0
 -----------------------------------------------------------------------------------------------
 Internal  Forces:  Max     0.105775470 RMS     0.042625897
 IRC-IRC-IRC-IRC-IRC-IRC-IRC-IRC-IRC-IRC-IRC-IRC-IRC-IRC-IRC-IRC-IRC-IRC
 Pt  5 Step number   1 out of a maximum of  99
 Modified Bulirsch-Stoer Extrapolation Cycles:
    EPS =    0.000010000000000
 Maximum DWI energy   std dev =  0.000017306 at pt    71
 Maximum DWI gradient std dev =  0.013964263 at pt    38
 CORRECTOR INTEGRATION CONVERGENCE:
   Recorrection delta-x convergence threshold:    0.010000
   Delta-x Convergence Met
 Point Number:   5          Path Number:   1
   CHANGE IN THE REACTION COORDINATE =    0.32127
   NET REACTION COORDINATE UP TO THIS POINT =    1.60631
  # OF POINTS ALONG THE PATH =   5
  # OF STEPS =   1

 Calculating another point on the path.
 IRC-IRC-IRC-IRC-IRC-IRC-IRC-IRC-IRC-IRC-IRC-IRC-IRC-IRC-IRC-IRC-IRC-IRC
                          Input orientation:                          
 ---------------------------------------------------------------------
 Center     Atomic      Atomic             Coordinates (Angstroms)
 Number     Number       Type             X           Y           Z
 ---------------------------------------------------------------------
      1          6           0       -0.569367   -0.530454   -1.026972
      2          6           0       -0.488651   -0.367448    0.396608
      3          6           0        0.600869   -0.684528   -0.419161
      4          1           0       -1.096149   -0.241838   -1.925151
      5          1           0       -0.989074   -0.694968    1.300041
      6          1           0        1.670131   -0.815922   -0.395366
      7          9           0        0.310979    1.092460    0.716911
 ---------------------------------------------------------------------
                    Distance matrix (angstroms):
                    1          2          3          4          5
     1  C    0.000000
     2  C    1.435154   0.000000
     3  C    1.327640   1.397523   0.000000
     4  H    1.080520   2.403205   2.311677   0.000000
     5  H    2.370276   1.083460   2.341727   3.258628   0.000000
     6  H    2.344306   2.342796   1.077568   3.212806   3.156012
     7  F    2.539683   1.695091   2.128939   3.277324   2.285843
                    6          7
     6  H    0.000000
     7  F    2.593526   0.000000
 Symmetry turned off by external request.
 Stoichiometry    C3H3F
 Framework group  C1[X(C3H3F)]
 Deg. of freedom    15
 Full point group                 C1      NOp   1
 Rotational constants (GHZ):     19.3738142      7.3686271      6.8072215
 Standard basis: 6-31G(d) (6D, 7F)
    66 basis functions,   124 primitive gaussians,    66 cartesian basis functions
    15 alpha electrons       15 beta electrons
       nuclear repulsion energy       105.5695668566 Hartrees.
 NAtoms=    7 NActive=    7 NUniq=    7 SFac= 1.00D+00 NAtFMM=   60 NAOKFM=F Big=F
 Integral buffers will be    131072 words long.
 Raffenetti 2 integral format.
 Two-electron integral symmetry is turned off.
 One-electron integrals computed using PRISM.
 NBasis=    66 RedAO= T EigKep=  2.59D-03  NBF=    66
 NBsUse=    66 1.00D-06 EigRej= -1.00D+00 NBFU=    66
 Initial guess from the checkpoint file:  "/scratch/hollas/g09_15697/Gau-15703.chk"
 B after Tr=     0.001078   -0.000510   -0.000925
         Rot=    1.000000    0.000151   -0.000442    0.000212 Ang=   0.06 deg.
 ExpMin= 1.61D-01 ExpMax= 7.00D+03 ExpMxC= 1.05D+03 IAcc=1 IRadAn=         1 AccDes= 0.00D+00
 Harris functional with IExCor=  402 and IRadAn=       1 diagonalized for initial guess.
 HarFok:  IExCor=  402 AccDes= 0.00D+00 IRadAn=         1 IDoV= 1 UseB2=F ITyADJ=14
 ICtDFT=  3500011 ScaDFX=  1.000000  1.000000  1.000000  1.000000
 FoFCou: FMM=F IPFlag=           0 FMFlag=      100000 FMFlg1=           0
         NFxFlg=           0 DoJE=T BraDBF=F KetDBF=T FulRan=T
         wScrn=  0.000000 ICntrl=     500 IOpCl=  0 I1Cent=   200000004 NGrid=           0
         NMat0=    1 NMatS0=      1 NMatT0=    0 NMatD0=    1 NMtDS0=    0 NMtDT0=    0
 Symmetry not used in FoFCou.
 Keep R1 ints in memory in canonical form, NReq=3363442.
 Requested convergence on RMS density matrix=1.00D-08 within 128 cycles.
 Requested convergence on MAX density matrix=1.00D-06.
 Requested convergence on             energy=1.00D-06.
 No special actions if energy rises.
 Integral accuracy reduced to 1.0D-05 until final iterations.
 Initial convergence to 1.0D-05 achieved.  Increase integral accuracy.
 SCF Done:  E(RB3LYP) =  -215.805184533     A.U. after   13 cycles
            NFock= 13  Conv=0.49D-08     -V/T= 2.0083
 DoSCS=F DFT=T ScalE2(SS,OS)=  1.000000  1.000000
 Range of M.O.s used for correlation:     1    66
 NBasis=    66 NAE=    15 NBE=    15 NFC=     0 NFV=     0
 NROrb=     66 NOA=    15 NOB=    15 NVA=    51 NVB=    51
 Symmetrizing basis deriv contribution to polar:
 IMax=3 JMax=2 DiffMx= 0.00D+00
 Calling FoFJK, ICntrl=      2147 FMM=F ISym2X=0 I1Cent= 0 IOpClX= 0 NMat=1 NMatS=1 NMatT=0.
 -------------------------------------------------------------------
 Center     Atomic                   Forces (Hartrees/Bohr)
 Number     Number              X              Y              Z
 -------------------------------------------------------------------
      1        6           0.004541513    0.004243477    0.000779497
      2        6           0.032053522    0.047443325    0.008703821
      3        6          -0.000865648   -0.035216680   -0.018209844
      4        1          -0.000054500   -0.000973183   -0.000125124
      5        1           0.002191834    0.001245524   -0.000397557
      6        1           0.000113450   -0.003344416   -0.002701804
      7        9          -0.037980170   -0.013398047    0.011951011
 -------------------------------------------------------------------
 Cartesian Forces:  Max     0.047443325 RMS     0.017937273
 -----------------------------------------------------------------------------------------------
                       Internal Coordinate Forces (Hartree/Bohr or radian)
  Cent   Atom   N1       Length/X         N2         Alpha/Y        N3         Beta/Z          J
 -----------------------------------------------------------------------------------------------
      1  C 
      2  C        1   0.008306(     1)
      3  C        1  -0.038019(     2)      2  -0.092912(     7)
      4  H        1  -0.000160(     3)      2   0.000935(     8)      3  -0.000981(    12)     0
      5  H        2  -0.001571(     4)      1   0.004033(     9)      3  -0.000351(    13)     0
      6  H        3   0.000603(     5)      1  -0.007381(    10)      2  -0.002234(    14)     0
      7  F        3  -0.001062(     6)      1  -0.099673(    11)      2   0.116204(    15)     0
 -----------------------------------------------------------------------------------------------
 Internal  Forces:  Max     0.116204266 RMS     0.047375791
 IRC-IRC-IRC-IRC-IRC-IRC-IRC-IRC-IRC-IRC-IRC-IRC-IRC-IRC-IRC-IRC-IRC-IRC
 Pt  6 Step number   1 out of a maximum of  99
 Modified Bulirsch-Stoer Extrapolation Cycles:
    EPS =    0.000010000000000
 Maximum DWI energy   std dev =  0.000017599 at pt    47
 Maximum DWI gradient std dev =  0.011494607 at pt    29
 CORRECTOR INTEGRATION CONVERGENCE:
   Recorrection delta-x convergence threshold:    0.010000
   Delta-x Convergence Met
 Point Number:   6          Path Number:   1
   CHANGE IN THE REACTION COORDINATE =    0.32128
   NET REACTION COORDINATE UP TO THIS POINT =    1.92759
  # OF POINTS ALONG THE PATH =   6
  # OF STEPS =   1

 Calculating another point on the path.
 IRC-IRC-IRC-IRC-IRC-IRC-IRC-IRC-IRC-IRC-IRC-IRC-IRC-IRC-IRC-IRC-IRC-IRC
                          Input orientation:                          
 ---------------------------------------------------------------------
 Center     Atomic      Atomic             Coordinates (Angstroms)
 Number     Number       Type             X           Y           Z
 ---------------------------------------------------------------------
      1          6           0       -0.566689   -0.527617   -1.026457
      2          6           0       -0.468890   -0.338344    0.401917
      3          6           0        0.600725   -0.705811   -0.430067
      4          1           0       -1.096876   -0.249215   -1.926030
      5          1           0       -0.972705   -0.685123    1.297537
      6          1           0        1.669876   -0.842180   -0.415871
      7          9           0        0.296112    1.086980    0.721364
 ---------------------------------------------------------------------
                    Distance matrix (angstroms):
                    1          2          3          4          5
     1  C    0.000000
     2  C    1.444175   0.000000
     3  C    1.322985   1.404032   0.000000
     4  H    1.080665   2.412808   2.308297   0.000000
     5  H    2.364446   1.084538   2.336820   3.255275   0.000000
     6  H    2.339655   2.344556   1.077905   3.207351   3.153358
     7  F    2.531053   1.648885   2.152367   3.276358   2.254378
                    6          7
     6  H    0.000000
     7  F    2.627201   0.000000
 Symmetry turned off by external request.
 Stoichiometry    C3H3F
 Framework group  C1[X(C3H3F)]
 Deg. of freedom    15
 Full point group                 C1      NOp   1
 Rotational constants (GHZ):     19.6538914      7.3874707      6.8129648
 Standard basis: 6-31G(d) (6D, 7F)
    66 basis functions,   124 primitive gaussians,    66 cartesian basis functions
    15 alpha electrons       15 beta electrons
       nuclear repulsion energy       105.8455151146 Hartrees.
 NAtoms=    7 NActive=    7 NUniq=    7 SFac= 1.00D+00 NAtFMM=   60 NAOKFM=F Big=F
 Integral buffers will be    131072 words long.
 Raffenetti 2 integral format.
 Two-electron integral symmetry is turned off.
 One-electron integrals computed using PRISM.
 NBasis=    66 RedAO= T EigKep=  2.59D-03  NBF=    66
 NBsUse=    66 1.00D-06 EigRej= -1.00D+00 NBFU=    66
 Initial guess from the checkpoint file:  "/scratch/hollas/g09_15697/Gau-15703.chk"
 B after Tr=     0.001065   -0.000571   -0.000953
         Rot=    1.000000    0.000182   -0.000436    0.000284 Ang=   0.06 deg.
 ExpMin= 1.61D-01 ExpMax= 7.00D+03 ExpMxC= 1.05D+03 IAcc=1 IRadAn=         1 AccDes= 0.00D+00
 Harris functional with IExCor=  402 and IRadAn=       1 diagonalized for initial guess.
 HarFok:  IExCor=  402 AccDes= 0.00D+00 IRadAn=         1 IDoV= 1 UseB2=F ITyADJ=14
 ICtDFT=  3500011 ScaDFX=  1.000000  1.000000  1.000000  1.000000
 FoFCou: FMM=F IPFlag=           0 FMFlag=      100000 FMFlg1=           0
         NFxFlg=           0 DoJE=T BraDBF=F KetDBF=T FulRan=T
         wScrn=  0.000000 ICntrl=     500 IOpCl=  0 I1Cent=   200000004 NGrid=           0
         NMat0=    1 NMatS0=      1 NMatT0=    0 NMatD0=    1 NMtDS0=    0 NMtDT0=    0
 Symmetry not used in FoFCou.
 Keep R1 ints in memory in canonical form, NReq=3363442.
 Requested convergence on RMS density matrix=1.00D-08 within 128 cycles.
 Requested convergence on MAX density matrix=1.00D-06.
 Requested convergence on             energy=1.00D-06.
 No special actions if energy rises.
 Integral accuracy reduced to 1.0D-05 until final iterations.
 Initial convergence to 1.0D-05 achieved.  Increase integral accuracy.
 SCF Done:  E(RB3LYP) =  -215.812771299     A.U. after   12 cycles
            NFock= 12  Conv=0.87D-08     -V/T= 2.0083
 DoSCS=F DFT=T ScalE2(SS,OS)=  1.000000  1.000000
 Range of M.O.s used for correlation:     1    66
 NBasis=    66 NAE=    15 NBE=    15 NFC=     0 NFV=     0
 NROrb=     66 NOA=    15 NOB=    15 NVA=    51 NVB=    51
 Symmetrizing basis deriv contribution to polar:
 IMax=3 JMax=2 DiffMx= 0.00D+00
 Calling FoFJK, ICntrl=      2147 FMM=F ISym2X=0 I1Cent= 0 IOpClX= 0 NMat=1 NMatS=1 NMatT=0.
 -------------------------------------------------------------------
 Center     Atomic                   Forces (Hartrees/Bohr)
 Number     Number              X              Y              Z
 -------------------------------------------------------------------
      1        6           0.004469157    0.005195334    0.001395888
      2        6           0.034569162    0.048882634    0.008018753
      3        6          -0.000973686   -0.035361368   -0.017485048
      4        1          -0.000146078   -0.001063621   -0.000047816
      5        1           0.002282638    0.001490914   -0.000485601
      6        1          -0.000023559   -0.003996321   -0.002926599
      7        9          -0.040177633   -0.015147573    0.011530423
 -------------------------------------------------------------------
 Cartesian Forces:  Max     0.048882634 RMS     0.018599611
 -----------------------------------------------------------------------------------------------
                       Internal Coordinate Forces (Hartree/Bohr or radian)
  Cent   Atom   N1       Length/X         N2         Alpha/Y        N3         Beta/Z          J
 -----------------------------------------------------------------------------------------------
      1  C 
      2  C        1   0.007533(     1)
      3  C        1  -0.040094(     2)      2  -0.100205(     7)
      4  H        1  -0.000207(     3)      2   0.000795(     8)      3  -0.001124(    12)     0
      5  H        2  -0.001733(     4)      1   0.004255(     9)      3  -0.000546(    13)     0
      6  H        3   0.000576(     5)      1  -0.008243(    10)      2  -0.002794(    14)     0
      7  F        3  -0.002528(     6)      1  -0.106631(    11)      2   0.121740(    15)     0
 -----------------------------------------------------------------------------------------------
 Internal  Forces:  Max     0.121739754 RMS     0.050333541
 IRC-IRC-IRC-IRC-IRC-IRC-IRC-IRC-IRC-IRC-IRC-IRC-IRC-IRC-IRC-IRC-IRC-IRC
 Pt  7 Step number   1 out of a maximum of  99
 Modified Bulirsch-Stoer Extrapolation Cycles:
    EPS =    0.000010000000000
 Maximum DWI energy   std dev =  0.000017750 at pt    47
 Maximum DWI gradient std dev =  0.009715284 at pt    29
 CORRECTOR INTEGRATION CONVERGENCE:
   Recorrection delta-x convergence threshold:    0.010000
   Delta-x Convergence Met
 Point Number:   7          Path Number:   1
   CHANGE IN THE REACTION COORDINATE =    0.32129
   NET REACTION COORDINATE UP TO THIS POINT =    2.24887
  # OF POINTS ALONG THE PATH =   7
  # OF STEPS =   1

 Calculating another point on the path.
 IRC-IRC-IRC-IRC-IRC-IRC-IRC-IRC-IRC-IRC-IRC-IRC-IRC-IRC-IRC-IRC-IRC-IRC
                          Input orientation:                          
 ---------------------------------------------------------------------
 Center     Atomic      Atomic             Coordinates (Angstroms)
 Number     Number       Type             X           Y           Z
 ---------------------------------------------------------------------
      1          6           0       -0.564146   -0.524298   -1.025594
      2          6           0       -0.448371   -0.309612    0.406602
      3          6           0        0.600470   -0.726429   -0.440126
      4          1           0       -1.098277   -0.256890   -1.926351
      5          1           0       -0.956229   -0.673880    1.294183
      6          1           0        1.668864   -0.872294   -0.437261
      7          9           0        0.280987    1.081156    0.725522
 ---------------------------------------------------------------------
                    Distance matrix (angstroms):
                    1          2          3          4          5
     1  C    0.000000
     2  C    1.452818   0.000000
     3  C    1.319075   1.410939   0.000000
     4  H    1.080817   2.422360   2.305444   0.000000
     5  H    2.357429   1.085547   2.331073   3.250523   0.000000
     6  H    2.335288   2.347636   1.078309   3.202058   3.150933
     7  F    2.521535   1.602469   2.174435   3.274929   2.221313
                    6          7
     6  H    0.000000
     7  F    2.663500   0.000000
 Symmetry turned off by external request.
 Stoichiometry    C3H3F
 Framework group  C1[X(C3H3F)]
 Deg. of freedom    15
 Full point group                 C1      NOp   1
 Rotational constants (GHZ):     19.9690863      7.4089439      6.8159064
 Standard basis: 6-31G(d) (6D, 7F)
    66 basis functions,   124 primitive gaussians,    66 cartesian basis functions
    15 alpha electrons       15 beta electrons
       nuclear repulsion energy       106.1615374993 Hartrees.
 NAtoms=    7 NActive=    7 NUniq=    7 SFac= 1.00D+00 NAtFMM=   60 NAOKFM=F Big=F
 Integral buffers will be    131072 words long.
 Raffenetti 2 integral format.
 Two-electron integral symmetry is turned off.
 One-electron integrals computed using PRISM.
 NBasis=    66 RedAO= T EigKep=  2.60D-03  NBF=    66
 NBsUse=    66 1.00D-06 EigRej= -1.00D+00 NBFU=    66
 Initial guess from the checkpoint file:  "/scratch/hollas/g09_15697/Gau-15703.chk"
 B after Tr=     0.001043   -0.000645   -0.000983
         Rot=    1.000000    0.000210   -0.000431    0.000361 Ang=   0.07 deg.
 ExpMin= 1.61D-01 ExpMax= 7.00D+03 ExpMxC= 1.05D+03 IAcc=1 IRadAn=         1 AccDes= 0.00D+00
 Harris functional with IExCor=  402 and IRadAn=       1 diagonalized for initial guess.
 HarFok:  IExCor=  402 AccDes= 0.00D+00 IRadAn=         1 IDoV= 1 UseB2=F ITyADJ=14
 ICtDFT=  3500011 ScaDFX=  1.000000  1.000000  1.000000  1.000000
 FoFCou: FMM=F IPFlag=           0 FMFlag=      100000 FMFlg1=           0
         NFxFlg=           0 DoJE=T BraDBF=F KetDBF=T FulRan=T
         wScrn=  0.000000 ICntrl=     500 IOpCl=  0 I1Cent=   200000004 NGrid=           0
         NMat0=    1 NMatS0=      1 NMatT0=    0 NMatD0=    1 NMtDS0=    0 NMtDT0=    0
 Symmetry not used in FoFCou.
 Keep R1 ints in memory in canonical form, NReq=3363442.
 Requested convergence on RMS density matrix=1.00D-08 within 128 cycles.
 Requested convergence on MAX density matrix=1.00D-06.
 Requested convergence on             energy=1.00D-06.
 No special actions if energy rises.
 Integral accuracy reduced to 1.0D-05 until final iterations.
 Initial convergence to 1.0D-05 achieved.  Increase integral accuracy.
 SCF Done:  E(RB3LYP) =  -215.820499232     A.U. after   13 cycles
            NFock= 13  Conv=0.35D-08     -V/T= 2.0084
 DoSCS=F DFT=T ScalE2(SS,OS)=  1.000000  1.000000
 Range of M.O.s used for correlation:     1    66
 NBasis=    66 NAE=    15 NBE=    15 NFC=     0 NFV=     0
 NROrb=     66 NOA=    15 NOB=    15 NVA=    51 NVB=    51
 Symmetrizing basis deriv contribution to polar:
 IMax=3 JMax=2 DiffMx= 0.00D+00
 Calling FoFJK, ICntrl=      2147 FMM=F ISym2X=0 I1Cent= 0 IOpClX= 0 NMat=1 NMatS=1 NMatT=0.
 -------------------------------------------------------------------
 Center     Atomic                   Forces (Hartrees/Bohr)
 Number     Number              X              Y              Z
 -------------------------------------------------------------------
      1        6           0.004308699    0.006071776    0.001975316
      2        6           0.035740212    0.047908513    0.006890126
      3        6          -0.001077044   -0.034430912   -0.016177152
      4        1          -0.000240547   -0.001107518    0.000045974
      5        1           0.002274913    0.001664635   -0.000558393
      6        1          -0.000219875   -0.004562504   -0.003073509
      7        9          -0.040786359   -0.015543990    0.010897637
 -------------------------------------------------------------------
 Cartesian Forces:  Max     0.047908513 RMS     0.018505470
 -----------------------------------------------------------------------------------------------
                       Internal Coordinate Forces (Hartree/Bohr or radian)
  Cent   Atom   N1       Length/X         N2         Alpha/Y        N3         Beta/Z          J
 -----------------------------------------------------------------------------------------------
      1  C 
      2  C        1   0.006332(     1)
      3  C        1  -0.040616(     2)      2  -0.103711(     7)
      4  H        1  -0.000253(     3)      2   0.000592(     8)      3  -0.001224(    12)     0
      5  H        2  -0.001824(     4)      1   0.004283(     9)      3  -0.000710(    13)     0
      6  H        3   0.000479(     5)      1  -0.008902(    10)      2  -0.003310(    14)     0
      7  F        3  -0.003129(     6)      1  -0.109400(    11)      2   0.121718(    15)     0
 -----------------------------------------------------------------------------------------------
 Internal  Forces:  Max     0.121718366 RMS     0.051220923
 IRC-IRC-IRC-IRC-IRC-IRC-IRC-IRC-IRC-IRC-IRC-IRC-IRC-IRC-IRC-IRC-IRC-IRC
 Pt  8 Step number   1 out of a maximum of  99
 Modified Bulirsch-Stoer Extrapolation Cycles:
    EPS =    0.000010000000000
 Maximum DWI energy   std dev =  0.000018710 at pt    71
 Maximum DWI gradient std dev =  0.008810980 at pt    29
 CORRECTOR INTEGRATION CONVERGENCE:
   Recorrection delta-x convergence threshold:    0.010000
   Delta-x Convergence Met
 Point Number:   8          Path Number:   1
   CHANGE IN THE REACTION COORDINATE =    0.32129
   NET REACTION COORDINATE UP TO THIS POINT =    2.57016
  # OF POINTS ALONG THE PATH =   8
  # OF STEPS =   1

 Calculating another point on the path.
 IRC-IRC-IRC-IRC-IRC-IRC-IRC-IRC-IRC-IRC-IRC-IRC-IRC-IRC-IRC-IRC-IRC-IRC
                          Input orientation:                          
 ---------------------------------------------------------------------
 Center     Atomic      Atomic             Coordinates (Angstroms)
 Number     Number       Type             X           Y           Z
 ---------------------------------------------------------------------
      1          6           0       -0.561675   -0.520413   -1.024394
      2          6           0       -0.427126   -0.281590    0.410605
      3          6           0        0.600088   -0.746640   -0.449452
      4          1           0       -1.100414   -0.264881   -1.926049
      5          1           0       -0.939690   -0.661444    1.290000
      6          1           0        1.666855   -0.906855   -0.459866
      7          9           0        0.265613    1.075356    0.729512
 ---------------------------------------------------------------------
                    Distance matrix (angstroms):
                    1          2          3          4          5
     1  C    0.000000
     2  C    1.460945   0.000000
     3  C    1.315837   1.418146   0.000000
     4  H    1.080980   2.431778   2.303070   0.000000
     5  H    2.349299   1.086438   2.324622   3.244390   0.000000
     6  H    2.331174   2.352325   1.078781   3.196811   3.149021
     7  F    2.511388   1.556564   2.195791   3.273265   2.187093
                    6          7
     6  H    0.000000
     7  F    2.703194   0.000000
 Symmetry turned off by external request.
 Stoichiometry    C3H3F
 Framework group  C1[X(C3H3F)]
 Deg. of freedom    15
 Full point group                 C1      NOp   1
 Rotational constants (GHZ):     20.3142638      7.4308986      6.8140827
 Standard basis: 6-31G(d) (6D, 7F)
    66 basis functions,   124 primitive gaussians,    66 cartesian basis functions
    15 alpha electrons       15 beta electrons
       nuclear repulsion energy       106.5084692393 Hartrees.
 NAtoms=    7 NActive=    7 NUniq=    7 SFac= 1.00D+00 NAtFMM=   60 NAOKFM=F Big=F
 Integral buffers will be    131072 words long.
 Raffenetti 2 integral format.
 Two-electron integral symmetry is turned off.
 One-electron integrals computed using PRISM.
 NBasis=    66 RedAO= T EigKep=  2.61D-03  NBF=    66
 NBsUse=    66 1.00D-06 EigRej= -1.00D+00 NBFU=    66
 Initial guess from the checkpoint file:  "/scratch/hollas/g09_15697/Gau-15703.chk"
 B after Tr=     0.001014   -0.000757   -0.001025
         Rot=    1.000000    0.000236   -0.000429    0.000449 Ang=   0.08 deg.
 ExpMin= 1.61D-01 ExpMax= 7.00D+03 ExpMxC= 1.05D+03 IAcc=1 IRadAn=         1 AccDes= 0.00D+00
 Harris functional with IExCor=  402 and IRadAn=       1 diagonalized for initial guess.
 HarFok:  IExCor=  402 AccDes= 0.00D+00 IRadAn=         1 IDoV= 1 UseB2=F ITyADJ=14
 ICtDFT=  3500011 ScaDFX=  1.000000  1.000000  1.000000  1.000000
 FoFCou: FMM=F IPFlag=           0 FMFlag=      100000 FMFlg1=           0
         NFxFlg=           0 DoJE=T BraDBF=F KetDBF=T FulRan=T
         wScrn=  0.000000 ICntrl=     500 IOpCl=  0 I1Cent=   200000004 NGrid=           0
         NMat0=    1 NMatS0=      1 NMatT0=    0 NMatD0=    1 NMtDS0=    0 NMtDT0=    0
 Symmetry not used in FoFCou.
 Keep R1 ints in memory in canonical form, NReq=3363442.
 Requested convergence on RMS density matrix=1.00D-08 within 128 cycles.
 Requested convergence on MAX density matrix=1.00D-06.
 Requested convergence on             energy=1.00D-06.
 No special actions if energy rises.
 Integral accuracy reduced to 1.0D-05 until final iterations.
 Initial convergence to 1.0D-05 achieved.  Increase integral accuracy.
 SCF Done:  E(RB3LYP) =  -215.828053951     A.U. after   13 cycles
            NFock= 13  Conv=0.34D-08     -V/T= 2.0083
 DoSCS=F DFT=T ScalE2(SS,OS)=  1.000000  1.000000
 Range of M.O.s used for correlation:     1    66
 NBasis=    66 NAE=    15 NBE=    15 NFC=     0 NFV=     0
 NROrb=     66 NOA=    15 NOB=    15 NVA=    51 NVB=    51
 Symmetrizing basis deriv contribution to polar:
 IMax=3 JMax=2 DiffMx= 0.00D+00
 Calling FoFJK, ICntrl=      2147 FMM=F ISym2X=0 I1Cent= 0 IOpClX= 0 NMat=1 NMatS=1 NMatT=0.
 -------------------------------------------------------------------
 Center     Atomic                   Forces (Hartrees/Bohr)
 Number     Number              X              Y              Z
 -------------------------------------------------------------------
      1        6           0.004100275    0.006812612    0.002455451
      2        6           0.035316227    0.044265428    0.005341995
      3        6          -0.001132695   -0.032595479   -0.014467582
      4        1          -0.000333034   -0.001106325    0.000156677
      5        1           0.002151987    0.001712931   -0.000593863
      6        1          -0.000481948   -0.005006450   -0.003130614
      7        9          -0.039620813   -0.014082716    0.010237935
 -------------------------------------------------------------------
 Cartesian Forces:  Max     0.044265428 RMS     0.017586297
 -----------------------------------------------------------------------------------------------
                       Internal Coordinate Forces (Hartree/Bohr or radian)
  Cent   Atom   N1       Length/X         N2         Alpha/Y        N3         Beta/Z          J
 -----------------------------------------------------------------------------------------------
      1  C 
      2  C        1   0.004748(     1)
      3  C        1  -0.039385(     2)      2  -0.102773(     7)
      4  H        1  -0.000300(     3)      2   0.000331(     8)      3  -0.001279(    12)     0
      5  H        2  -0.001808(     4)      1   0.004077(     9)      3  -0.000800(    13)     0
      6  H        3   0.000299(     5)      1  -0.009311(    10)      2  -0.003753(    14)     0
      7  F        3  -0.002360(     6)      1  -0.107351(    11)      2   0.115414(    15)     0
 -----------------------------------------------------------------------------------------------
 Internal  Forces:  Max     0.115413913 RMS     0.049738941
 IRC-IRC-IRC-IRC-IRC-IRC-IRC-IRC-IRC-IRC-IRC-IRC-IRC-IRC-IRC-IRC-IRC-IRC
 Pt  9 Step number   1 out of a maximum of  99
 Modified Bulirsch-Stoer Extrapolation Cycles:
    EPS =    0.000010000000000
 Maximum DWI energy   std dev =  0.000020309 at pt    71
 Maximum DWI gradient std dev =  0.009252563 at pt    29
 CORRECTOR INTEGRATION CONVERGENCE:
   Recorrection delta-x convergence threshold:    0.010000
[...]
 -------------------------------------------------------------------
 Center     Atomic                   Forces (Hartrees/Bohr)
 Number     Number              X              Y              Z
 -------------------------------------------------------------------
      1        6           0.003704992    0.007510122    0.002817688
      2        6           0.028992097    0.028841928    0.001337100
      3        6          -0.000807420   -0.026646407   -0.010541393
      4        1          -0.000503616   -0.000955118    0.000448363
      5        1           0.001549757    0.001267369   -0.000470807
      6        1          -0.001321157   -0.005325087   -0.002869463
      7        9          -0.031614652   -0.004692806    0.009278512
 -------------------------------------------------------------------
 Cartesian Forces:  Max     0.031614652 RMS     0.013319499
 -----------------------------------------------------------------------------------------------
                       Internal Coordinate Forces (Hartree/Bohr or radian)
  Cent   Atom   N1       Length/X         N2         Alpha/Y        N3         Beta/Z          J
 -----------------------------------------------------------------------------------------------
      1  C 
      2  C        1   0.000866(     1)
      3  C        1  -0.031283(     2)      2  -0.085913(     7)
      4  H        1  -0.000415(     3)      2  -0.000383(     8)      3  -0.001236(    12)     0
      5  H        2  -0.001346(     4)      1   0.002915(     9)      3  -0.000607(    13)     0
      6  H        3  -0.000458(     5)      1  -0.009046(    10)      2  -0.004286(    14)     0
      7  F        3   0.004235(     6)      1  -0.087438(    11)      2   0.082935(    15)     0
 -----------------------------------------------------------------------------------------------
 Internal  Forces:  Max     0.087438181 RMS     0.039170465
 IRC-IRC-IRC-IRC-IRC-IRC-IRC-IRC-IRC-IRC-IRC-IRC-IRC-IRC-IRC-IRC-IRC-IRC
 Pt 11 Step number   1 out of a maximum of  99
 Modified Bulirsch-Stoer Extrapolation Cycles:
    EPS =    0.000010000000000
 Maximum DWI energy   std dev =  0.000021702 at pt    47
 Maximum DWI gradient std dev =  0.017707987 at pt    39
 CORRECTOR INTEGRATION CONVERGENCE:
   Recorrection delta-x convergence threshold:    0.010000
   Delta-x Convergence Met
 Point Number:  11          Path Number:   1
   CHANGE IN THE REACTION COORDINATE =    0.32110
   NET REACTION COORDINATE UP TO THIS POINT =    3.53379
  # OF POINTS ALONG THE PATH =  11
  # OF STEPS =   1

 Calculating another point on the path.
 IRC-IRC-IRC-IRC-IRC-IRC-IRC-IRC-IRC-IRC-IRC-IRC-IRC-IRC-IRC-IRC-IRC-IRC
                          Input orientation:                          
 ---------------------------------------------------------------------
 Center     Atomic      Atomic             Coordinates (Angstroms)
 Number     Number       Type             X           Y           Z
 ---------------------------------------------------------------------
      1          6           0       -0.553583   -0.503763   -1.018855
      2          6           0       -0.359780   -0.209165    0.416895
      3          6           0        0.598269   -0.809084   -0.474898
      4          1           0       -1.113863   -0.291533   -1.919260
      5          1           0       -0.890271   -0.622932    1.272094
      6          1           0        1.649718   -1.052007   -0.540320
      7          9           0        0.218140    1.065577    0.742939
 ---------------------------------------------------------------------
                    Distance matrix (angstroms):
                    1          2          3          4          5
     1  C    0.000000
     2  C    1.478420   0.000000
     3  C    1.309913   1.439811   0.000000
     4  H    1.081520   2.456225   2.299007   0.000000
     5  H    2.318622   1.088113   2.302691   3.216296   0.000000
     6  H    2.320366   2.380068   1.081128   3.180750   3.149682
     7  F    2.482399   1.437102   2.267594   3.271587   2.087976
                    6          7
     6  H    0.000000
     7  F    2.860129   0.000000
 Symmetry turned off by external request.
 Stoichiometry    C3H3F
 Framework group  C1[X(C3H3F)]
 Deg. of freedom    15
 Full point group                 C1      NOp   1
 Rotational constants (GHZ):     21.4278895      7.4481719      6.7446368
 Standard basis: 6-31G(d) (6D, 7F)
    66 basis functions,   124 primitive gaussians,    66 cartesian basis functions
    15 alpha electrons       15 beta electrons
       nuclear repulsion energy       107.4727926970 Hartrees.
 NAtoms=    7 NActive=    7 NUniq=    7 SFac= 1.00D+00 NAtFMM=   60 NAOKFM=F Big=F
 Integral buffers will be    131072 words long.
 Raffenetti 2 integral format.
 Two-electron integral symmetry is turned off.
 One-electron integrals computed using PRISM.
 NBasis=    66 RedAO= T EigKep=  2.65D-03  NBF=    66
 NBsUse=    66 1.00D-06 EigRej= -1.00D+00 NBFU=    66
 Initial guess from the checkpoint file:  "/scratch/hollas/g09_15697/Gau-15703.chk"
 B after Tr=     0.000763   -0.001688   -0.001250
         Rot=    1.000000    0.000278   -0.000454    0.000826 Ang=   0.11 deg.
 ExpMin= 1.61D-01 ExpMax= 7.00D+03 ExpMxC= 1.05D+03 IAcc=1 IRadAn=         1 AccDes= 0.00D+00
 Harris functional with IExCor=  402 and IRadAn=       1 diagonalized for initial guess.
 HarFok:  IExCor=  402 AccDes= 0.00D+00 IRadAn=         1 IDoV= 1 UseB2=F ITyADJ=14
 ICtDFT=  3500011 ScaDFX=  1.000000  1.000000  1.000000  1.000000
 FoFCou: FMM=F IPFlag=           0 FMFlag=      100000 FMFlg1=           0
         NFxFlg=           0 DoJE=T BraDBF=F KetDBF=T FulRan=T
         wScrn=  0.000000 ICntrl=     500 IOpCl=  0 I1Cent=   200000004 NGrid=           0
         NMat0=    1 NMatS0=      1 NMatT0=    0 NMatD0=    1 NMtDS0=    0 NMtDT0=    0
 Symmetry not used in FoFCou.
 Keep R1 ints in memory in canonical form, NReq=3363442.
 Requested convergence on RMS density matrix=1.00D-08 within 128 cycles.
 Requested convergence on MAX density matrix=1.00D-06.
 Requested convergence on             energy=1.00D-06.
 No special actions if energy rises.
 Integral accuracy reduced to 1.0D-05 until final iterations.
 Initial convergence to 1.0D-05 achieved.  Increase integral accuracy.
 SCF Done:  E(RB3LYP) =  -215.846483345     A.U. after   12 cycles
            NFock= 12  Conv=0.48D-08     -V/T= 2.0082
 DoSCS=F DFT=T ScalE2(SS,OS)=  1.000000  1.000000
 Range of M.O.s used for correlation:     1    66
 NBasis=    66 NAE=    15 NBE=    15 NFC=     0 NFV=     0
 NROrb=     66 NOA=    15 NOB=    15 NVA=    51 NVB=    51
 Symmetrizing basis deriv contribution to polar:
 IMax=3 JMax=2 DiffMx= 0.00D+00
 Calling FoFJK, ICntrl=      2147 FMM=F ISym2X=0 I1Cent= 0 IOpClX= 0 NMat=1 NMatS=1 NMatT=0.
 -------------------------------------------------------------------
 Center     Atomic                   Forces (Hartrees/Bohr)
 Number     Number              X              Y              Z
 -------------------------------------------------------------------
      1        6           0.003626793    0.007171910    0.002524301
      2        6           0.023414832    0.018650934   -0.000545539
      3        6          -0.000253594   -0.022755954   -0.008749097
      4        1          -0.000571765   -0.000787181    0.000645754
      5        1           0.001135193    0.000788879   -0.000283296
      6        1          -0.002004399   -0.005015001   -0.002457746
      7        9          -0.025347060    0.001946413    0.008865623
 -------------------------------------------------------------------
 Cartesian Forces:  Max     0.025347060 RMS     0.010522629
 -----------------------------------------------------------------------------------------------
                       Internal Coordinate Forces (Hartree/Bohr or radian)
  Cent   Atom   N1       Length/X         N2         Alpha/Y        N3         Beta/Z          J
 -----------------------------------------------------------------------------------------------
      1  C 
      2  C        1  -0.000829(     1)
      3  C        1  -0.025073(     2)      2  -0.070988(     7)
      4  H        1  -0.000495(     3)      2  -0.000857(     8)      3  -0.001114(    12)     0
      5  H        2  -0.000907(     4)      1   0.002105(     9)      3  -0.000315(    13)     0
      6  H        3  -0.001169(     5)      1  -0.008077(    10)      2  -0.004253(    14)     0
      7  F        3   0.008972(     6)      1  -0.070951(    11)      2   0.059741(    15)     0
 -----------------------------------------------------------------------------------------------
 Internal  Forces:  Max     0.070987897 RMS     0.031031540
 IRC-IRC-IRC-IRC-IRC-IRC-IRC-IRC-IRC-IRC-IRC-IRC-IRC-IRC-IRC-IRC-IRC-IRC
 Pt 12 Step number   1 out of a maximum of  99
 Modified Bulirsch-Stoer Extrapolation Cycles:
    EPS =    0.000010000000000
 Maximum DWI energy   std dev =  0.000018509 at pt    35
 Maximum DWI gradient std dev =  0.030309360 at pt    39
 CORRECTOR INTEGRATION CONVERGENCE:
   Recorrection delta-x convergence threshold:    0.010000
   Delta-x Convergence Met
 Point Number:  12          Path Number:   1
   CHANGE IN THE REACTION COORDINATE =    0.32075
   NET REACTION COORDINATE UP TO THIS POINT =    3.85453
  # OF POINTS ALONG THE PATH =  12
  # OF STEPS =   1

 Calculating another point on the path.
 IRC-IRC-IRC-IRC-IRC-IRC-IRC-IRC-IRC-IRC-IRC-IRC-IRC-IRC-IRC-IRC-IRC-IRC
                          Input orientation:                          
 ---------------------------------------------------------------------
 Center     Atomic      Atomic             Coordinates (Angstroms)
 Number     Number       Type             X           Y           Z
 ---------------------------------------------------------------------
      1          6           0       -0.549957   -0.496069   -1.016666
      2          6           0       -0.337470   -0.193823    0.416321
      3          6           0        0.597584   -0.831879   -0.483424
      4          1           0       -1.122598   -0.300540   -1.913200
      5          1           0       -0.874554   -0.614477    1.264459
      6          1           0        1.637224   -1.119766   -0.571082
      7          9           0        0.202407    1.069073    0.749077
 ---------------------------------------------------------------------
                    Distance matrix (angstroms):
                    1          2          3          4          5
     1  C    0.000000
     2  C    1.479849   0.000000
     3  C    1.309185   1.446023   0.000000
     4  H    1.081631   2.460586   2.299045   0.000000
     5  H    2.307144   1.088461   2.295550   3.202749   0.000000
     6  H    2.317607   2.394108   1.082319   3.176324   3.151755
     7  F    2.476604   1.413188   2.299748   3.274018   2.063930
                    6          7
     6  H    0.000000
     7  F    2.931303   0.000000
 Symmetry turned off by external request.
 Stoichiometry    C3H3F
 Framework group  C1[X(C3H3F)]
 Deg. of freedom    15
 Full point group                 C1      NOp   1
 Rotational constants (GHZ):     21.7552327      7.4082269      6.6828719
 Standard basis: 6-31G(d) (6D, 7F)
    66 basis functions,   124 primitive gaussians,    66 cartesian basis functions
    15 alpha electrons       15 beta electrons
       nuclear repulsion energy       107.5828201010 Hartrees.
 NAtoms=    7 NActive=    7 NUniq=    7 SFac= 1.00D+00 NAtFMM=   60 NAOKFM=F Big=F
 Integral buffers will be    131072 words long.
 Raffenetti 2 integral format.
 Two-electron integral symmetry is turned off.
 One-electron integrals computed using PRISM.
 NBasis=    66 RedAO= T EigKep=  2.65D-03  NBF=    66
 NBsUse=    66 1.00D-06 EigRej= -1.00D+00 NBFU=    66
 Initial guess from the checkpoint file:  "/scratch/hollas/g09_15697/Gau-15703.chk"
 B after Tr=     0.000514   -0.002234   -0.001233
         Rot=    0.999999    0.000253   -0.000436    0.000970 Ang=   0.13 deg.
 ExpMin= 1.61D-01 ExpMax= 7.00D+03 ExpMxC= 1.05D+03 IAcc=1 IRadAn=         1 AccDes= 0.00D+00
 Harris functional with IExCor=  402 and IRadAn=       1 diagonalized for initial guess.
 HarFok:  IExCor=  402 AccDes= 0.00D+00 IRadAn=         1 IDoV= 1 UseB2=F ITyADJ=14
 ICtDFT=  3500011 ScaDFX=  1.000000  1.000000  1.000000  1.000000
 FoFCou: FMM=F IPFlag=           0 FMFlag=      100000 FMFlg1=           0
         NFxFlg=           0 DoJE=T BraDBF=F KetDBF=T FulRan=T
         wScrn=  0.000000 ICntrl=     500 IOpCl=  0 I1Cent=   200000004 NGrid=           0
         NMat0=    1 NMatS0=      1 NMatT0=    0 NMatD0=    1 NMtDS0=    0 NMtDT0=    0
 Symmetry not used in FoFCou.
 Keep R1 ints in memory in canonical form, NReq=3363442.
 Requested convergence on RMS density matrix=1.00D-08 within 128 cycles.
 Requested convergence on MAX density matrix=1.00D-06.
 Requested convergence on             energy=1.00D-06.
 No special actions if energy rises.
 Integral accuracy reduced to 1.0D-05 until final iterations.
 Initial convergence to 1.0D-05 achieved.  Increase integral accuracy.
 SCF Done:  E(RB3LYP) =  -215.850554231     A.U. after   12 cycles
            NFock= 12  Conv=0.48D-08     -V/T= 2.0081
 DoSCS=F DFT=T ScalE2(SS,OS)=  1.000000  1.000000
 Range of M.O.s used for correlation:     1    66
 NBasis=    66 NAE=    15 NBE=    15 NFC=     0 NFV=     0
 NROrb=     66 NOA=    15 NOB=    15 NVA=    51 NVB=    51
 Symmetrizing basis deriv contribution to polar:
 IMax=3 JMax=2 DiffMx= 0.00D+00
 Calling FoFJK, ICntrl=      2147 FMM=F ISym2X=0 I1Cent= 0 IOpClX= 0 NMat=1 NMatS=1 NMatT=0.
 -------------------------------------------------------------------
 Center     Atomic                   Forces (Hartrees/Bohr)
 Number     Number              X              Y              Z
 -------------------------------------------------------------------
      1        6           0.003619685    0.006228847    0.001905132
      2        6           0.017451334    0.009914067   -0.001576214
      3        6           0.000488918   -0.018477489   -0.007224261
      4        1          -0.000601100   -0.000565882    0.000833077
      5        1           0.000802824    0.000335939   -0.000071504
      6        1          -0.002759428   -0.004295721   -0.001873926
      7        9          -0.019002232    0.006860239    0.008007696
 -------------------------------------------------------------------
 Cartesian Forces:  Max     0.019002232 RMS     0.008043593
 -----------------------------------------------------------------------------------------------
                       Internal Coordinate Forces (Hartree/Bohr or radian)
  Cent   Atom   N1       Length/X         N2         Alpha/Y        N3         Beta/Z          J
 -----------------------------------------------------------------------------------------------
      1  C 
      2  C        1  -0.001648(     1)
      3  C        1  -0.018964(     2)      2  -0.054972(     7)
      4  H        1  -0.000571(     3)      2  -0.001311(     8)      3  -0.000916(    12)     0
      5  H        2  -0.000489(     4)      1   0.001473(     9)      3  -0.000017(    13)     0
      6  H        3  -0.002017(     5)      1  -0.006513(    10)      2  -0.003907(    14)     0
      7  F        3   0.012009(     6)      1  -0.053974(    11)      2   0.038430(    15)     0
 -----------------------------------------------------------------------------------------------
 Internal  Forces:  Max     0.054972041 RMS     0.023073164
 IRC-IRC-IRC-IRC-IRC-IRC-IRC-IRC-IRC-IRC-IRC-IRC-IRC-IRC-IRC-IRC-IRC-IRC
 Pt 13 Step number   1 out of a maximum of  99
 Modified Bulirsch-Stoer Extrapolation Cycles:
    EPS =    0.000010000000000
 Maximum DWI energy   std dev =  0.000010525 at pt    71
 Maximum DWI gradient std dev =  0.052050799 at pt    59
 CORRECTOR INTEGRATION CONVERGENCE:
   Recorrection delta-x convergence threshold:    0.010000
   Delta-x Convergence NOT Met
 IRC-IRC-IRC-IRC-IRC-IRC-IRC-IRC-IRC-IRC-IRC-IRC-IRC-IRC-IRC-IRC-IRC-IRC
                          Input orientation:                          
 ---------------------------------------------------------------------
 Center     Atomic      Atomic             Coordinates (Angstroms)
 Number     Number       Type             X           Y           Z
 ---------------------------------------------------------------------
      1          6           0       -0.549677   -0.496261   -1.016604
      2          6           0       -0.337267   -0.193500    0.416454
      3          6           0        0.597442   -0.832302   -0.483950
      4          1           0       -1.122751   -0.299303   -1.911974
      5          1           0       -0.875572   -0.615315    1.264578
      6          1           0        1.635312   -1.116270   -0.568145
      7          9           0        0.202345    1.069031    0.749054
 ---------------------------------------------------------------------
                    Distance matrix (angstroms):
                    1          2          3          4          5
     1  C    0.000000
     2  C    1.480013   0.000000
     3  C    1.308635   1.446540   0.000000
     4  H    1.081155   2.459626   2.298349   0.000000
     5  H    2.307416   1.089501   2.296563   3.201788   0.000000
     6  H    2.315103   2.389981   1.079306   3.174937   3.148709
     7  F    2.476534   1.412723   2.300319   3.272505   2.065112
                    6          7
     6  H    0.000000
     7  F    2.926423   0.000000
 Symmetry turned off by external request.
 Stoichiometry    C3H3F
 Framework group  C1[X(C3H3F)]
 Deg. of freedom    15
 Full point group                 C1      NOp   1
 Rotational constants (GHZ):     21.7681890      7.4083422      6.6841390
 Standard basis: 6-31G(d) (6D, 7F)
    66 basis functions,   124 primitive gaussians,    66 cartesian basis functions
    15 alpha electrons       15 beta electrons
       nuclear repulsion energy       107.5996659644 Hartrees.
 NAtoms=    7 NActive=    7 NUniq=    7 SFac= 1.00D+00 NAtFMM=   60 NAOKFM=F Big=F
 Integral buffers will be    131072 words long.
 Raffenetti 2 integral format.
 Two-electron integral symmetry is turned off.
 One-electron integrals computed using PRISM.
 NBasis=    66 RedAO= T EigKep=  2.64D-03  NBF=    66
 NBsUse=    66 1.00D-06 EigRej= -1.00D+00 NBFU=    66
 Initial guess from the checkpoint file:  "/scratch/hollas/g09_15697/Gau-15703.chk"
 B after Tr=    -0.000107    0.000111    0.000135
         Rot=    1.000000   -0.000013    0.000028   -0.000019 Ang=   0.00 deg.
 ExpMin= 1.61D-01 ExpMax= 7.00D+03 ExpMxC= 1.05D+03 IAcc=1 IRadAn=         1 AccDes= 0.00D+00
 Harris functional with IExCor=  402 and IRadAn=       1 diagonalized for initial guess.
 HarFok:  IExCor=  402 AccDes= 0.00D+00 IRadAn=         1 IDoV= 1 UseB2=F ITyADJ=14
 ICtDFT=  3500011 ScaDFX=  1.000000  1.000000  1.000000  1.000000
 FoFCou: FMM=F IPFlag=           0 FMFlag=      100000 FMFlg1=           0
         NFxFlg=           0 DoJE=T BraDBF=F KetDBF=T FulRan=T
         wScrn=  0.000000 ICntrl=     500 IOpCl=  0 I1Cent=   200000004 NGrid=           0
         NMat0=    1 NMatS0=      1 NMatT0=    0 NMatD0=    1 NMtDS0=    0 NMtDT0=    0
 Symmetry not used in FoFCou.
 Keep R1 ints in memory in canonical form, NReq=3363442.
 Requested convergence on RMS density matrix=1.00D-08 within 128 cycles.
 Requested convergence on MAX density matrix=1.00D-06.
 Requested convergence on             energy=1.00D-06.
 No special actions if energy rises.
 Integral accuracy reduced to 1.0D-05 until final iterations.
 Initial convergence to 1.0D-05 achieved.  Increase integral accuracy.
 SCF Done:  E(RB3LYP) =  -215.850550189     A.U. after   10 cycles
            NFock= 10  Conv=0.30D-08     -V/T= 2.0081
 DoSCS=F DFT=T ScalE2(SS,OS)=  1.000000  1.000000
 Range of M.O.s used for correlation:     1    66
 NBasis=    66 NAE=    15 NBE=    15 NFC=     0 NFV=     0
 NROrb=     66 NOA=    15 NOB=    15 NVA=    51 NVB=    51
 Symmetrizing basis deriv contribution to polar:
 IMax=3 JMax=2 DiffMx= 0.00D+00
