 Entering Gaussian System, Link 0=/home/slavicek/G03/gaussian09/d01/arch/x86_64_sse4.2/g09/g09
 Input=qst2.com
 Output=qst2.log
 Initial command:
 /home/slavicek/G03/gaussian09/d01/arch/x86_64_sse4.2/g09/l1.exe "/scratch/hollas/GAUSS_qst2.com_385487/Gau-31551.inp" -scrdir="/scratch/hollas/GAUSS_qst2.com_385487/"
 Entering Link 1 = /home/slavicek/G03/gaussian09/d01/arch/x86_64_sse4.2/g09/l1.exe PID=     31553.
  
 Copyright (c) 1988,1990,1992,1993,1995,1998,2003,2009,2013,
            Gaussian, Inc.  All Rights Reserved.
  
 This is part of the Gaussian(R) 09 program.  It is based on
 the Gaussian(R) 03 system (copyright 2003, Gaussian, Inc.),
 the Gaussian(R) 98 system (copyright 1998, Gaussian, Inc.),
 the Gaussian(R) 94 system (copyright 1995, Gaussian, Inc.),
 the Gaussian 92(TM) system (copyright 1992, Gaussian, Inc.),
 the Gaussian 90(TM) system (copyright 1990, Gaussian, Inc.),
 the Gaussian 88(TM) system (copyright 1988, Gaussian, Inc.),
 the Gaussian 86(TM) system (copyright 1986, Carnegie Mellon
 University), and the Gaussian 82(TM) system (copyright 1983,
 Carnegie Mellon University). Gaussian is a federally registered
 trademark of Gaussian, Inc.
  
 This software contains proprietary and confidential information,
 including trade secrets, belonging to Gaussian, Inc.
  
 This software is provided under written license and may be
 used, copied, transmitted, or stored only in accord with that
 written license.
  
 The following legend is applicable only to US Government
 contracts under FAR:
  
                    RESTRICTED RIGHTS LEGEND
  
 Use, reproduction and disclosure by the US Government is
 subject to restrictions as set forth in subparagraphs (a)
 and (c) of the Commercial Computer Software - Restricted
 Rights clause in FAR 52.227-19.
  
 Gaussian, Inc.
 340 Quinnipiac St., Bldg. 40, Wallingford CT 06492
  
  
 ---------------------------------------------------------------
 Warning -- This program may not be used in any manner that
 competes with the business of Gaussian, Inc. or will provide
 assistance to any competitor of Gaussian, Inc.  The licensee
 of this program is prohibited from giving any competitor of
 Gaussian, Inc. access to this program.  By using this program,
 the user acknowledges that Gaussian, Inc. is engaged in the
 business of creating and licensing software in the field of
 computational chemistry and represents and warrants to the
 licensee that it is not a competitor of Gaussian, Inc. and that
 it will not use this program in any manner prohibited above.
 ---------------------------------------------------------------
  

 Cite this work as:
 Gaussian 09, Revision D.01,
 M. J. Frisch, G. W. Trucks, H. B. Schlegel, G. E. Scuseria, 
 M. A. Robb, J. R. Cheeseman, G. Scalmani, V. Barone, B. Mennucci, 
 G. A. Petersson, H. Nakatsuji, M. Caricato, X. Li, H. P. Hratchian, 
 A. F. Izmaylov, J. Bloino, G. Zheng, J. L. Sonnenberg, M. Hada, 
 M. Ehara, K. Toyota, R. Fukuda, J. Hasegawa, M. Ishida, T. Nakajima, 
 Y. Honda, O. Kitao, H. Nakai, T. Vreven, J. A. Montgomery, Jr., 
 J. E. Peralta, F. Ogliaro, M. Bearpark, J. J. Heyd, E. Brothers, 
 K. N. Kudin, V. N. Staroverov, T. Keith, R. Kobayashi, J. Normand, 
 K. Raghavachari, A. Rendell, J. C. Burant, S. S. Iyengar, J. Tomasi, 
 M. Cossi, N. Rega, J. M. Millam, M. Klene, J. E. Knox, J. B. Cross, 
 V. Bakken, C. Adamo, J. Jaramillo, R. Gomperts, R. E. Stratmann, 
 O. Yazyev, A. J. Austin, R. Cammi, C. Pomelli, J. W. Ochterski, 
 R. L. Martin, K. Morokuma, V. G. Zakrzewski, G. A. Voth, 
 P. Salvador, J. J. Dannenberg, S. Dapprich, A. D. Daniels, 
 O. Farkas, J. B. Foresman, J. V. Ortiz, J. Cioslowski, 
 and D. J. Fox, Gaussian, Inc., Wallingford CT, 2013.
 
 ******************************************
 Gaussian 09:  ES64L-G09RevD.01 24-Apr-2013
                20-Oct-2015 
 ******************************************
 %NprocShared=2
 Will use up to    2 processors via shared memory.
 %Mem=500Mb
 ---------------------------
 #B3LYP/6-31g* opt=QST2 freq
 ---------------------------
 1/5=1,14=-1,18=20,26=3,27=202,38=1/1,3;
 2/9=110,12=2,17=6,18=5,40=1/2;
 3/5=1,6=6,7=1,11=2,16=1,25=1,30=1,71=1,74=-5/1,2,3;
 4//1;
 5/5=2,38=5/2;
 6/7=2,8=2,9=2,10=2,28=1/1;
 7//1,2,3,16;
 1/5=1,14=-1,18=20,26=3,27=202/3(2);
 2/9=110/2;
 99//99;
 2/9=110/2;
 3/5=1,6=6,7=1,11=2,16=1,25=1,30=1,71=1,74=-5/1,2,3;
 4/5=5,16=3,69=1/1;
 5/5=2,38=5/2;
 7//1,2,3,16;
 1/5=1,14=-1,18=20,26=3,27=202/3(-5);
 2/9=110/2;
 6/7=2,8=2,9=2,10=2,19=2,28=1/1;
 99/9=1/99;
 -------------------------------------------------------------------
 finding transition state using qst2,geometry of reactant goes first
 -------------------------------------------------------------------
 Symbolic Z-matrix:
 Charge =  0 Multiplicity = 1
 c
 c                    1    cc2
 c                    1    cc3      2    ccc3
 h                    1    hc4      2    hcc4     3    dih4     0
 h                    2    hc5      1    hcc5     3    dih5     0
 h                    3    hc6      1    hcc6     2    dih6     0
 f                    3    fc7      1    fcc7     2    dih7     0
       Variables:
  cc2                   1.30745                  
  cc3                   1.4719                   
  ccc3                 63.629                    
  hc4                   1.08081                  
  hcc4                149.153                    
  dih4               -176.96                     
  hc5                   1.08077                  
  hcc5                149.272                    
  dih5                176.701                    
  hc6                   1.09018                  
  hcc6                124.257                    
  dih6                109.73                     
  fc7                   1.39417                  
  fcc7                119.114                    
  dih7               -105.996                    
 
 -------
 product
 -------
 Symbolic Z-matrix:
 Charge =  0 Multiplicity = 1
 c
 c                    1    cc2
 c                    1    cc3      2    ccc3
 h                    1    hc4      2    hcc4     3    dih4     0
 h                    2    hc5      1    hcc5     3    dih5     0
 h                    3    hc6      1    hcc6     2    dih6     0
 f                    2    fc7      1    fcc7     3    dih7     0
       Variables:
  cc2                   1.47192                  
  cc3                   1.30753                  
  ccc3                 63.611                    
  hc4                   1.08078                  
  hcc4                147.147                    
  dih4               -177.145                    
  hc5                   1.09005                  
  hcc5                124.353                    
  dih5               -109.844                    
  hc6                   1.08082                  
  hcc6                149.197                    
  dih6               -176.877                    
  fc7                   1.39472                  
  fcc7                119.011                    
  dih7                105.98                     
 
 Iteration  1 RMS(Cart)=  0.10292141 RMS(Int)=  0.40716243
 Iteration  2 RMS(Cart)=  0.08945046 RMS(Int)=  0.27982800
 Iteration  3 RMS(Cart)=  0.08537780 RMS(Int)=  0.16491617
 Iteration  4 RMS(Cart)=  0.05331961 RMS(Int)=  0.08948157
 Iteration  5 RMS(Cart)=  0.01852998 RMS(Int)=  0.07233717
 Iteration  6 RMS(Cart)=  0.00130193 RMS(Int)=  0.07229026
 Iteration  7 RMS(Cart)=  0.00015418 RMS(Int)=  0.07229006
 Iteration  8 RMS(Cart)=  0.00001603 RMS(Int)=  0.07229005
 Iteration  9 RMS(Cart)=  0.00000244 RMS(Int)=  0.07229005
 Iteration 10 RMS(Cart)=  0.00000034 RMS(Int)=  0.07229005
 Iteration  1 RMS(Cart)=  0.00000005 RMS(Int)=  0.07229005
 Iteration  1 RMS(Cart)=  0.00000001 RMS(Int)=  0.07229005
 Iteration  1 RMS(Cart)=  0.00000000 RMS(Int)=  0.07229005
 Iteration  1 RMS(Cart)=  0.00000000 RMS(Int)=  0.07229005
 Iteration  1 RMS(Cart)=  0.00000000 RMS(Int)=  0.07229005
 Iteration  1 RMS(Cart)=  0.00000000 RMS(Int)=  0.07229005
 Iteration  1 RMS(Cart)=  0.00000000 RMS(Int)=  0.07229005
 Iteration  1 RMS(Cart)=  0.00000000 RMS(Int)=  0.07229005
 Iteration  1 RMS(Cart)=  0.00000000 RMS(Int)=  0.07229005
   Var     Old X     New X   DQ Goal   DQ Act.  Rel. Err.   Overall
     1    2.4707    2.6568    0.1554    0.1860    1.1972
     2    2.7815    2.6566   -0.1553   -0.1249    0.8042
     3    2.0424    2.0424    0.0000    0.0000
     4    2.7814    2.6706   -0.0003   -0.1107
     5    2.0424    2.0511    0.0088    0.0088
     6    4.6693    3.6706   -1.0169   -0.9988    0.9822
     7    2.0601    2.0513   -0.0088   -0.0088
     8    2.6346    3.6695    1.0168    1.0349    1.0178
     9    2.6032    2.6135   -0.0175    0.0103   -0.5875
    10    2.5682    2.6137    0.0177    0.0455    2.5749
    11    2.6053    2.4920   -0.2175   -0.1133    0.5210
    12    1.3033    1.6611    0.3869    0.3578    0.9247
    13    2.5659    2.5332   -0.1975   -0.0327    0.1654
    14    0.5156    1.1980    0.7809    0.6824    0.8739
    15    2.2676    2.0643   -0.1899   -0.2033    1.0704
    16    2.1687    2.4911    0.2176    0.3224    1.4815
    17    2.0789    1.6616   -0.3879   -0.4173    1.0758
    18    2.1687    2.5323    0.1993    0.3636    1.8250
    19    2.0785    1.1988   -0.7811   -0.8797    1.1263
    20    1.8884    2.0651    0.1905    0.1766    0.9271
    21   -0.0045    0.7156    0.6394    0.7201    1.1262
    22   -2.5749   -1.9881    0.6664    0.5868    0.8805
    23   -1.2766   -0.7178    0.6392    0.5588    0.8742
    24    1.2415    1.9874    0.6664    0.7460    1.1195
    25    1.2804    0.0023   -1.2786   -1.2782    0.9997
    26   -1.2368   -1.9056   -0.6405   -0.6688    1.0442
    27    2.5172    1.9079   -0.6381   -0.6094    0.9550

 GradGradGradGradGradGradGradGradGradGradGradGradGradGradGradGradGradGrad
 Berny optimization.
 Initialization pass.
                           ----------------------------
                           !    Initial Parameters    !
                           ! (Angstroms and Degrees)  !
 --------------------------                            --------------------------
 ! Name  Definition        TS        Reactant  Product Derivative Info.         !
 --------------------------------------------------------------------------------
 ! R1    R(1,2)             1.4059    1.3074    1.4719 estimate D2E/DX2         !
 ! R2    R(1,3)             1.4058    1.4719    1.3075 estimate D2E/DX2         !
 ! R3    R(1,4)             1.0808    1.0808    1.0808 estimate D2E/DX2         !
 ! R4    R(2,3)             1.4132    1.4718    1.4715 estimate D2E/DX2         !
 ! R5    R(2,5)             1.0854    1.0808    1.0901 estimate D2E/DX2         !
 ! R6    R(2,7)             1.9424    2.4709    1.3947 estimate D2E/DX2         !
 ! R7    R(3,6)             1.0855    1.0902    1.0808 estimate D2E/DX2         !
 ! R8    R(3,7)             1.9418    1.3942    2.4703 estimate D2E/DX2         !
 ! A1    A(2,1,4)         149.7423  149.153   147.147  estimate D2E/DX2         !
 ! A2    A(3,1,4)         149.7566  147.1497  149.1745 estimate D2E/DX2         !
 ! A3    A(1,2,5)         142.7811  149.272   124.353  estimate D2E/DX2         !
 ! A4    A(1,2,7)          95.1743   74.6743  119.011  estimate D2E/DX2         !
 ! A5    A(3,2,5)         145.1429  147.0144  124.3785 estimate D2E/DX2         !
 ! A6    A(3,2,7)          68.6417   29.5416  119.0264 estimate D2E/DX2         !
 ! A7    A(5,2,7)         118.2776  129.9234  108.1638 estimate D2E/DX2         !
 ! A8    A(1,3,6)         142.7315  124.257   149.197  estimate D2E/DX2         !
 ! A9    A(1,3,7)          95.2027  119.114    74.6606 estimate D2E/DX2         !
 ! A10   A(2,3,6)         145.0903  124.2558  147.0887 estimate D2E/DX2         !
 ! A11   A(2,3,7)          68.6853  119.091    29.583  estimate D2E/DX2         !
 ! A12   A(6,3,7)         118.3201  108.1995  130.0322 estimate D2E/DX2         !
 ! D1    D(4,1,2,5)        41.0009   -0.259    73.011  estimate D2E/DX2         !
 ! D2    D(4,1,2,7)      -113.9105 -147.5319  -71.165  estimate D2E/DX2         !
 ! D3    D(4,1,3,6)       -41.1291  -73.1434    0.1004 estimate D2E/DX2         !
 ! D4    D(4,1,3,7)       113.8723   71.1306  147.4913 estimate D2E/DX2         !
 ! D5    D(5,2,3,6)         0.1301   73.3638  -73.1476 estimate D2E/DX2         !
 ! D6    D(5,2,3,7)      -109.1819  -70.8634 -144.2543 estimate D2E/DX2         !
 ! D7    D(7,2,3,6)       109.312   144.2272   71.1067 estimate D2E/DX2         !
 --------------------------------------------------------------------------------
 Trust Radius=3.00D-01 FncErr=1.00D-07 GrdErr=1.00D-06
 Number of steps in this run=     37 maximum allowed number of steps=    100.
 Search for a saddle point of order  1.
 GradGradGradGradGradGradGradGradGradGradGradGradGradGradGradGradGradGrad

                          Input orientation:                          
 ---------------------------------------------------------------------
 Center     Atomic      Atomic             Coordinates (Angstroms)
 Number     Number       Type             X           Y           Z
 ---------------------------------------------------------------------
      1          6           0        0.031228   -0.053488   -0.087910
      2          6           0        0.196293    0.219070    1.281404
      3          6           0        1.247645   -0.368834    0.542308
      4          1           0       -0.567675    0.004373   -0.985727
      5          1           0       -0.329623    0.225965    2.230869
      6          1           0        2.045851   -1.104253    0.560617
      7          9           0        1.669503    1.461039    1.036462
 ---------------------------------------------------------------------
                    Distance matrix (angstroms):
                    1          2          3          4          5
     1  C    0.000000
     2  C    1.405901   0.000000
     3  C    1.405805   1.413236   0.000000
     4  H    1.080791   2.402005   2.401991   0.000000
     5  H    2.363270   1.085412   2.385959   3.232996   0.000000
     6  H    2.362921   2.385704   1.085500   3.232762   3.194073
     7  F    2.498390   1.942378   1.941800   3.349043   2.636005
                    6          7
     6  H    0.000000
     7  F    2.636056   0.000000
 Stoichiometry    C3H3F
 Framework group  C1[X(C3H3F)]
 Deg. of freedom    15
 Full point group                 C1      NOp   1
 Largest Abelian subgroup         C1      NOp   1
 Largest concise Abelian subgroup C1      NOp   1
                         Standard orientation:                         
 ---------------------------------------------------------------------
 Center     Atomic      Atomic             Coordinates (Angstroms)
 Number     Number       Type             X           Y           Z
 ---------------------------------------------------------------------
      1          6           0        1.111908   -0.000525    0.486246
      2          6           0        0.286695    0.706933   -0.405429
      3          6           0        0.286130   -0.706302   -0.406086
      4          1           0        1.814115   -0.001116    1.307837
      5          1           0        0.246376    1.597904   -1.024028
      6          1           0        0.246450   -1.596168   -1.026468
      7          9           0       -1.379482   -0.000140    0.299363
 ---------------------------------------------------------------------
 Rotational constants (GHZ):     17.2310566      7.3798438      6.8852538
 Standard basis: 6-31G(d) (6D, 7F)
 There are    66 symmetry adapted cartesian basis functions of A   symmetry.
 There are    66 symmetry adapted basis functions of A   symmetry.
    66 basis functions,   124 primitive gaussians,    66 cartesian basis functions
    15 alpha electrons       15 beta electrons
       nuclear repulsion energy       103.7557542283 Hartrees.
 NAtoms=    7 NActive=    7 NUniq=    7 SFac= 1.00D+00 NAtFMM=   60 NAOKFM=F Big=F
 Integral buffers will be    131072 words long.
 Raffenetti 2 integral format.
 Two-electron integral symmetry is turned on.
 One-electron integrals computed using PRISM.
 NBasis=    66 RedAO= T EigKep=  2.71D-03  NBF=    66
 NBsUse=    66 1.00D-06 EigRej= -1.00D+00 NBFU=    66
 ExpMin= 1.61D-01 ExpMax= 7.00D+03 ExpMxC= 1.05D+03 IAcc=1 IRadAn=         1 AccDes= 0.00D+00
 Harris functional with IExCor=  402 and IRadAn=       1 diagonalized for initial guess.
 HarFok:  IExCor=  402 AccDes= 0.00D+00 IRadAn=         1 IDoV= 1 UseB2=F ITyADJ=14
 ICtDFT=  3500011 ScaDFX=  1.000000  1.000000  1.000000  1.000000
 FoFCou: FMM=F IPFlag=           0 FMFlag=      100000 FMFlg1=           0
         NFxFlg=           0 DoJE=T BraDBF=F KetDBF=T FulRan=T
         wScrn=  0.000000 ICntrl=     500 IOpCl=  0 I1Cent=   200000004 NGrid=           0
         NMat0=    1 NMatS0=      1 NMatT0=    0 NMatD0=    1 NMtDS0=    0 NMtDT0=    0
 Petite list used in FoFCou.
 Keep R1 ints in memory in canonical form, NReq=3363530.
 Requested convergence on RMS density matrix=1.00D-08 within 128 cycles.
 Requested convergence on MAX density matrix=1.00D-06.
 Requested convergence on             energy=1.00D-06.
 No special actions if energy rises.
 Integral accuracy reduced to 1.0D-05 until final iterations.
 Initial convergence to 1.0D-05 achieved.  Increase integral accuracy.
 SCF Done:  E(RB3LYP) =  -215.768062684     A.U. after   14 cycles
            NFock= 14  Conv=0.51D-08     -V/T= 2.0091

 **********************************************************************

            Population analysis using the SCF density.

 **********************************************************************

 Orbital symmetries:
       Occupied  (A) (A) (A) (A) (A) (A) (A) (A) (A) (A) (A) (A)
                 (A) (A) (A)
       Virtual   (A) (A) (A) (A) (A) (A) (A) (A) (A) (A) (A) (A)
                 (A) (A) (A) (A) (A) (A) (A) (A) (A) (A) (A) (A)
                 (A) (A) (A) (A) (A) (A) (A) (A) (A) (A) (A) (A)
                 (A) (A) (A) (A) (A) (A) (A) (A) (A) (A) (A) (A)
                 (A) (A) (A)
 The electronic state is 1-A.
 Alpha  occ. eigenvalues --  -24.56309 -10.27556 -10.27505 -10.23311  -1.02480
 Alpha  occ. eigenvalues --   -0.90640  -0.61317  -0.60165  -0.54624  -0.41701
 Alpha  occ. eigenvalues --   -0.36981  -0.36699  -0.29852  -0.27021  -0.22325
 Alpha virt. eigenvalues --   -0.02296  -0.00767   0.10869   0.11293   0.11414
 Alpha virt. eigenvalues --    0.15821   0.27597   0.28315   0.45114   0.51269
 Alpha virt. eigenvalues --    0.53334   0.54771   0.59243   0.59348   0.68396
 Alpha virt. eigenvalues --    0.75736   0.77625   0.79631   0.89669   0.92145
 Alpha virt. eigenvalues --    0.95211   1.10058   1.15104   1.24250   1.27941
 Alpha virt. eigenvalues --    1.39452   1.43654   1.44410   1.57456   1.58866
 Alpha virt. eigenvalues --    1.76755   1.78077   1.79616   1.93697   1.95769
 Alpha virt. eigenvalues --    2.02073   2.05230   2.19894   2.21218   2.22829
 Alpha virt. eigenvalues --    2.25368   2.38300   2.49016   2.71083   2.72417
 Alpha virt. eigenvalues --    2.75751   2.81023   3.85772   4.16218   4.29800
 Alpha virt. eigenvalues --    4.35213
          Condensed to atoms (all electrons):
               1          2          3          4          5          6
     1  C    5.110960   0.401221   0.400950   0.357804  -0.040946  -0.040984
     2  C    0.401221   4.864883   0.363218  -0.029692   0.354945  -0.023598
     3  C    0.400950   0.363218   4.864828  -0.029693  -0.023599   0.354929
     4  H    0.357804  -0.029692  -0.029693   0.530467  -0.000767  -0.000766
     5  H   -0.040946   0.354945  -0.023599  -0.000767   0.535969  -0.001302
     6  H   -0.040984  -0.023598   0.354929  -0.000766  -0.001302   0.536026
     7  F   -0.052566   0.050716   0.051036  -0.000599  -0.006147  -0.006156
               7
     1  C   -0.052566
     2  C    0.050716
     3  C    0.051036
     4  H   -0.000599
     5  H   -0.006147
     6  H   -0.006156
     7  F    9.400859
 Mulliken charges:
               1
     1  C   -0.136439
     2  C    0.018308
     3  C    0.018331
     4  H    0.173247
     5  H    0.181847
     6  H    0.181850
     7  F   -0.437144
 Sum of Mulliken charges =   0.00000
 Mulliken charges with hydrogens summed into heavy atoms:
               1
     1  C    0.036808
     2  C    0.200155
     3  C    0.200181
     7  F   -0.437144
 Electronic spatial extent (au):  <R**2>=            219.4938
 Charge=              0.0000 electrons
 Dipole moment (field-independent basis, Debye):
    X=              3.4403    Y=              0.0010    Z=             -1.4476  Tot=              3.7325
 Quadrupole moment (field-independent basis, Debye-Ang):
   XX=            -25.4926   YY=            -18.6426   ZZ=            -20.3075
   XY=             -0.0020   XZ=              1.9866   YZ=              0.0002
 Traceless Quadrupole moment (field-independent basis, Debye-Ang):
   XX=             -4.0117   YY=              2.8383   ZZ=              1.1734
   XY=             -0.0020   XZ=              1.9866   YZ=              0.0002
 Octapole moment (field-independent basis, Debye-Ang**2):
  XXX=             -2.9529  YYY=              0.0140  ZZZ=              1.6348  XYY=             -3.3666
  XXY=             -0.0022  XXZ=              3.0589  XZZ=             -0.2949  YZZ=             -0.0072
  YYZ=             -4.4149  XYZ=             -0.0025
 Hexadecapole moment (field-independent basis, Debye-Ang**3):
 XXXX=           -137.7700 YYYY=            -59.0960 ZZZZ=            -51.8459 XXXY=             -0.0076
 XXXZ=              5.4057 YYYX=              0.0031 YYYZ=             -0.0063 ZZZX=              0.4349
 ZZZY=              0.0075 XXYY=            -35.0149 XXZZ=            -27.0695 YYZZ=            -16.0126
 XXYZ=             -0.0040 YYXZ=             -2.2726 ZZXY=             -0.0049
 N-N= 1.037557542283D+02 E-N=-7.147995488888D+02  KE= 2.138327091199D+02
 Calling FoFJK, ICntrl=      2127 FMM=F ISym2X=0 I1Cent= 0 IOpClX= 0 NMat=1 NMatS=1 NMatT=0.
 ***** Axes restored to original set *****
 -------------------------------------------------------------------
 Center     Atomic                   Forces (Hartrees/Bohr)
 Number     Number              X              Y              Z
 -------------------------------------------------------------------
      1        6           0.020291896   -0.011318632    0.038138043
      2        6           0.007755856   -0.023115079   -0.043406630
      3        6          -0.048702752    0.008590177   -0.003382722
      4        1           0.003803305    0.005629169    0.000917093
      5        1           0.008162720    0.008305155   -0.000877561
      6        1           0.003611284    0.010938138    0.002327010
      7        9           0.005077692    0.000971074    0.006284768
 -------------------------------------------------------------------
 Cartesian Forces:  Max     0.048702752 RMS     0.018667343

 GradGradGradGradGradGradGradGradGradGradGradGradGradGradGradGradGradGrad
 Berny optimization.
 FormGI is forming the generalized inverse of G from B-inverse, IUseBI=4.
 Internal  Forces:  Max     0.026928705 RMS     0.009357037
 Search for a saddle point.
 Step number   1 out of a maximum of   37
 All quantities printed in internal units (Hartrees-Bohrs-Radians)
 Second derivative matrix not updated -- first step.
 ITU=  0
 LST/QST climbing along tangent vector
     Eigenvalues ---    0.02019   0.06029   0.07432   0.08191   0.08653
     Eigenvalues ---    0.08911   0.10428   0.15828   0.19660   0.35338
     Eigenvalues ---    0.35348   0.35899   0.37075   0.38070   0.44039
     Eigenvalues --- 1000.000001000.000001000.000001000.000001000.00000
     Eigenvalues --- 1000.000001000.000001000.000001000.000001000.00000
     Eigenvalues --- 1000.000001000.00000
 Eigenvectors required to have negative eigenvalues:
                          D4        D2        D3        D1        A2
   1                    0.50038  -0.50018   0.49951  -0.49939   0.01633
                          A1        R4        R1        R2        A5
   1                    0.01631   0.00234  -0.00116  -0.00115   0.00052
 QST in optimization variable space.
 Eigenvectors 1 and   6 swapped, overlap=  1.0000
                        Tangent   TS vect  // Eig F  Eigenval
   1         R1         0.04838  -0.04838   0.00008   0.08911
   2         R2        -0.04836   0.04836   0.00702   0.06029
   3         R3        -0.00001   0.00001   0.00000   0.07432
   4         R4        -0.00005   0.00005  -0.00196   0.08191
   5         R5         0.00310  -0.00310  -0.00005   0.08653
   6         R6        -0.37732   0.37732  -0.00163   0.02019
   7         R7        -0.00312   0.00312   0.00157   0.10428
   8         R8         0.37727  -0.37727  -0.00001   0.15828
   9         A1        -0.00269   0.00269   0.00202   0.19660
  10         A2         0.00272  -0.00272  -0.00230   0.35338
  11         A3        -0.06290   0.06290  -0.00239   0.35348
  12         A4         0.13692  -0.13692  -0.00128   0.35899
  13         A5        -0.06938   0.06938  -0.00375   0.37075
  14         A6         0.26315  -0.26315   0.00012   0.38070
  15         A7        -0.07311   0.07311  -0.02240   0.44039
  16         A8         0.06298  -0.06298   0.000001000.00000
  17         A9        -0.13718   0.13718   0.000001000.00000
  18         A10        0.06992  -0.06992   0.000001000.00000
  19         A11       -0.26322   0.26322   0.000001000.00000
  20         A12        0.07325  -0.07325   0.000001000.00000
  21         D1         0.22218  -0.22218   0.000001000.00000
  22         D2         0.21296  -0.21296   0.000001000.00000
  23         D3         0.22218  -0.22218   0.000001000.00000
  24         D4         0.21287  -0.21287   0.000001000.00000
  25         D5        -0.45954   0.45954   0.000001000.00000
  26         D6        -0.23023   0.23023   0.000001000.00000
  27         D7        -0.22932   0.22932   0.000001000.00000
 RFO step:  Lambda0=8.910637054D-02 Lambda=-2.20476353D-03.
 Linear search not attempted -- option 19 set.
 Maximum step size (   0.300) exceeded in Quadratic search.
    -- Step size scaled by   0.000
 Iteration  1 RMS(Cart)=  0.04938272 RMS(Int)=  0.00257922
 Iteration  2 RMS(Cart)=  0.00149609 RMS(Int)=  0.00150955
 Iteration  3 RMS(Cart)=  0.00000324 RMS(Int)=  0.00150954
 Iteration  4 RMS(Cart)=  0.00000001 RMS(Int)=  0.00150954
 Variable       Old X    -DE/DX   Delta X   Delta X   Delta X     New X
                                 (Linear)    (Quad)   (Total)
    R1        2.65677  -0.02693   0.00000   0.02054   0.02001   2.67678
    R2        2.65659  -0.02671   0.00000  -0.02055  -0.02129   2.63530
    R3        2.04240  -0.00257   0.00000  -0.00001  -0.00001   2.04239
    R4        2.67063  -0.02369   0.00000  -0.00003   0.00213   2.67276
    R5        2.05113  -0.00467   0.00000   0.00131   0.00131   2.05244
    R6        3.67056   0.00058   0.00000  -0.16026  -0.16036   3.51020
    R7        2.05130  -0.00472   0.00000  -0.00133  -0.00133   2.04997
    R8        3.66947   0.00047   0.00000   0.16024   0.15970   3.82917
    A1        2.61350  -0.00081   0.00000  -0.00114  -0.00168   2.61181
    A2        2.61375  -0.00083   0.00000   0.00116   0.00062   2.61437
    A3        2.49200   0.00173   0.00000  -0.02671  -0.02907   2.46293
    A4        1.66111   0.00421   0.00000   0.05816   0.05854   1.71965
    A5        2.53322   0.00187   0.00000  -0.02946  -0.03268   2.50054
    A6        1.19802   0.00348   0.00000   0.11177   0.11394   1.31196
    A7        2.06433  -0.00697   0.00000  -0.03107  -0.03025   2.03409
    A8        2.49113   0.00181   0.00000   0.02675   0.02454   2.51567
    A9        1.66160   0.00419   0.00000  -0.05826  -0.05779   1.60381
   A10        2.53230   0.00196   0.00000   0.02970   0.02632   2.55862
   A11        1.19879   0.00356   0.00000  -0.11179  -0.10978   1.08900
   A12        2.06508  -0.00704   0.00000   0.03110   0.03187   2.09695
    D1        0.71560  -0.00084   0.00000   0.09437   0.09261   0.80821
    D2       -1.98811   0.00408   0.00000   0.09047   0.09224  -1.89587
    D3       -0.71784   0.00086   0.00000   0.09436   0.09582  -0.62202
    D4        1.98745  -0.00413   0.00000   0.09039   0.08897   2.07641
    D5        0.00227   0.00001   0.00000  -0.19518  -0.19495  -0.19268
    D6       -1.90558   0.00723   0.00000  -0.09776  -0.09665  -2.00224
    D7        1.90785  -0.00722   0.00000  -0.09742  -0.09829   1.80956
         Item               Value     Threshold  Converged?
 Maximum Force            0.026929     0.000450     NO 
 RMS     Force            0.009357     0.000300     NO 
 Maximum Displacement     0.137752     0.001800     NO 
 RMS     Displacement     0.049379     0.001200     NO 
 Predicted change in Energy= 8.072245D-03
 GradGradGradGradGradGradGradGradGradGradGradGradGradGradGradGradGradGrad

                          Input orientation:                          
 ---------------------------------------------------------------------
 Center     Atomic      Atomic             Coordinates (Angstroms)
 Number     Number       Type             X           Y           Z
 ---------------------------------------------------------------------
      1          6           0        0.042252   -0.058627   -0.094117
      2          6           0        0.234407    0.252043    1.274459
      3          6           0        1.236288   -0.415210    0.531875
      4          1           0       -0.561656    0.002063   -0.988383
      5          1           0       -0.292542    0.249038    2.224167
      6          1           0        2.037866   -1.146018    0.545128
      7          9           0        1.596608    1.500583    1.084894
 ---------------------------------------------------------------------
                    Distance matrix (angstroms):
                    1          2          3          4          5
     1  C    0.000000
     2  C    1.416488   0.000000
     3  C    1.394538   1.414363   0.000000
     4  H    1.080788   2.411776   2.391214   0.000000
     5  H    2.362452   1.086107   2.375373   3.233249   0.000000
     6  H    2.360832   2.395613   1.084797   3.229127   3.193142
     7  F    2.497444   1.857520   2.026308   3.346961   2.536374
                    6          7
     6  H    0.000000
     7  F    2.736888   0.000000
 Stoichiometry    C3H3F
 Framework group  C1[X(C3H3F)]
 Deg. of freedom    15
 Full point group                 C1      NOp   1
 Largest Abelian subgroup         C1      NOp   1
 Largest concise Abelian subgroup C1      NOp   1
                         Standard orientation:                         
 ---------------------------------------------------------------------
 Center     Atomic      Atomic             Coordinates (Angstroms)
 Number     Number       Type             X           Y           Z
 ---------------------------------------------------------------------
      1          6           0        1.105974    0.166287    0.468225
      2          6           0        0.174861    0.614674   -0.500495
      3          6           0        0.403716   -0.765856   -0.295110
      4          1           0        1.800426    0.386748    1.266494
      5          1           0        0.053481    1.371952   -1.269536
      6          1           0        0.455030   -1.751982   -0.744228
      7          9           0       -1.379583   -0.010817    0.301283
 ---------------------------------------------------------------------
 Rotational constants (GHZ):     17.3525240      7.3678642      6.8699044
 Standard basis: 6-31G(d) (6D, 7F)
 There are    66 symmetry adapted cartesian basis functions of A   symmetry.
 There are    66 symmetry adapted basis functions of A   symmetry.
    66 basis functions,   124 primitive gaussians,    66 cartesian basis functions
    15 alpha electrons       15 beta electrons
       nuclear repulsion energy       103.8241002136 Hartrees.
 NAtoms=    7 NActive=    7 NUniq=    7 SFac= 1.00D+00 NAtFMM=   60 NAOKFM=F Big=F
 Integral buffers will be    131072 words long.
 Raffenetti 2 integral format.
 Two-electron integral symmetry is turned on.
 One-electron integrals computed using PRISM.
 NBasis=    66 RedAO= T EigKep=  2.73D-03  NBF=    66
 NBsUse=    66 1.00D-06 EigRej= -1.00D+00 NBFU=    66
 Initial guess from the checkpoint file:  "/scratch/hollas/GAUSS_qst2.com_385487/Gau-31553.chk"
 B after Tr=     0.000000    0.000000    0.000000
         Rot=    0.995047    0.090893   -0.001598   -0.040229 Ang=  11.41 deg.
 ExpMin= 1.61D-01 ExpMax= 7.00D+03 ExpMxC= 1.05D+03 IAcc=1 IRadAn=         1 AccDes= 0.00D+00
 Harris functional with IExCor=  402 and IRadAn=       1 diagonalized for initial guess.
 HarFok:  IExCor=  402 AccDes= 0.00D+00 IRadAn=         1 IDoV= 1 UseB2=F ITyADJ=14
 ICtDFT=  3500011 ScaDFX=  1.000000  1.000000  1.000000  1.000000
 FoFCou: FMM=F IPFlag=           0 FMFlag=      100000 FMFlg1=           0
         NFxFlg=           0 DoJE=T BraDBF=F KetDBF=T FulRan=T
         wScrn=  0.000000 ICntrl=     500 IOpCl=  0 I1Cent=   200000004 NGrid=           0
         NMat0=    1 NMatS0=      1 NMatT0=    0 NMatD0=    1 NMtDS0=    0 NMtDT0=    0
 Petite list used in FoFCou.
 Keep R1 ints in memory in canonical form, NReq=3363530.
 Requested convergence on RMS density matrix=1.00D-08 within 128 cycles.
 Requested convergence on MAX density matrix=1.00D-06.
 Requested convergence on             energy=1.00D-06.
 No special actions if energy rises.
 Integral accuracy reduced to 1.0D-05 until final iterations.
 Initial convergence to 1.0D-05 achieved.  Increase integral accuracy.
 SCF Done:  E(RB3LYP) =  -215.773324294     A.U. after   14 cycles
            NFock= 14  Conv=0.36D-08     -V/T= 2.0091
 Calling FoFJK, ICntrl=      2127 FMM=F ISym2X=0 I1Cent= 0 IOpClX= 0 NMat=1 NMatS=1 NMatT=0.
 ***** Axes restored to original set *****
 -------------------------------------------------------------------
 Center     Atomic                   Forces (Hartrees/Bohr)
 Number     Number              X              Y              Z
 -------------------------------------------------------------------
      1        6           0.031427286   -0.017390924    0.030639703
      2        6           0.031496973    0.001494333   -0.033736844
      3        6          -0.063301292   -0.013884856   -0.016110536
      4        1           0.003317595    0.005403608    0.001054004
      5        1           0.007790451    0.007373622   -0.000752908
      6        1           0.003437278    0.010743007    0.001776626
      7        9          -0.014168291    0.006261210    0.017129955
 -------------------------------------------------------------------
 Cartesian Forces:  Max     0.063301292 RMS     0.021427036

 GradGradGradGradGradGradGradGradGradGradGradGradGradGradGradGradGradGrad
 Berny optimization.
 FormGI is forming the generalized inverse of G from B-inverse, IUseBI=4.
 Internal  Forces:  Max     0.038674172 RMS     0.011171295
 Search for a saddle point.
 Step number   2 out of a maximum of   37
 All quantities printed in internal units (Hartrees-Bohrs-Radians)
 Update second derivatives using D2CorX and points    1    2
 ITU=  0  0
 LST/QST climbing along tangent vector
     Eigenvalues ---   -0.05662   0.02019   0.04812   0.06479   0.07195
     Eigenvalues ---    0.08685   0.10466   0.15770   0.19531   0.35338
     Eigenvalues ---    0.35347   0.35899   0.36904   0.37132   0.44012
     Eigenvalues --- 1000.000001000.000001000.000001000.000001000.00000
     Eigenvalues --- 1000.000001000.000001000.000001000.000001000.00000
     Eigenvalues --- 1000.000001000.00000
 Eigenvectors required to have negative eigenvalues:
                          D5        R6        R8        A6        A11
   1                    0.45868   0.37725  -0.37449  -0.27425   0.25370
                          D7        D3        D6        D2        D1
   1                    0.23287  -0.22908   0.22581  -0.22138  -0.21496
 QST in optimization variable space.
                        Tangent   TS vect  // Eig F  Eigenval
   1         R1         0.04601  -0.04601  -0.02403  -0.05662
   2         R2        -0.05165   0.05165  -0.00148   0.02019
   3         R3        -0.00001   0.00001   0.00435   0.04812
   4         R4         0.00726  -0.00726   0.00922   0.06479
   5         R5         0.00309  -0.00309  -0.00382   0.07195
   6         R6        -0.37725   0.37725  -0.00224   0.08685
   7         R7        -0.00312   0.00312   0.00081   0.10466
   8         R8         0.37449  -0.37449  -0.00114   0.15770
   9         A1        -0.00476   0.00476   0.00162   0.19531
  10         A2         0.00119  -0.00119  -0.00221   0.35338
  11         A3        -0.07380   0.07380  -0.00232   0.35347
  12         A4         0.13829  -0.13829  -0.00118   0.35899
  13         A5        -0.08697   0.08697  -0.00064   0.36904
  14         A6         0.27425  -0.27425   0.00871   0.37132
  15         A7        -0.06872   0.06872  -0.02190   0.44012
  16         A8         0.05383  -0.05383   0.000001000.00000
  17         A9        -0.13541   0.13541   0.000001000.00000
  18         A10        0.05211  -0.05211   0.000001000.00000
  19         A11       -0.25370   0.25370   0.000001000.00000
  20         A12        0.07653  -0.07653   0.000001000.00000
  21         D1         0.21496  -0.21496   0.000001000.00000
  22         D2         0.22138  -0.22138   0.000001000.00000
  23         D3         0.22908  -0.22908   0.000001000.00000
  24         D4         0.20741  -0.20741   0.000001000.00000
  25         D5        -0.45868   0.45868   0.000001000.00000
  26         D6        -0.22581   0.22581   0.000001000.00000
  27         D7        -0.23287   0.23287   0.000001000.00000
 RFO step:  Lambda0=8.823103727D-03 Lambda=-3.30391618D-03.
 Linear search not attempted -- option 19 set.
 Iteration  1 RMS(Cart)=  0.02928256 RMS(Int)=  0.00589779
 Iteration  2 RMS(Cart)=  0.00244387 RMS(Int)=  0.00274646
 Iteration  3 RMS(Cart)=  0.00000828 RMS(Int)=  0.00274644
 Iteration  4 RMS(Cart)=  0.00000001 RMS(Int)=  0.00274644
 Variable       Old X    -DE/DX   Delta X   Delta X   Delta X     New X
                                 (Linear)    (Quad)   (Total)
    R1        2.67678  -0.01475   0.00000  -0.02861  -0.02798   2.64879
    R2        2.63530  -0.03867   0.00000  -0.02729  -0.02975   2.60554
    R3        2.04239  -0.00242   0.00000  -0.00329  -0.00329   2.03911
    R4        2.67276  -0.02108   0.00000  -0.02615  -0.02464   2.64812
    R5        2.05244  -0.00446   0.00000  -0.00725  -0.00725   2.04520
    R6        3.51020  -0.01481   0.00000   0.08737   0.08619   3.59640
    R7        2.04997  -0.00468   0.00000  -0.00546  -0.00546   2.04451
    R8        3.82917   0.01177   0.00000  -0.10779  -0.10644   3.72272
    A1        2.61181  -0.00323   0.00000  -0.00757  -0.00844   2.60337
    A2        2.61437   0.00066   0.00000   0.00352   0.00224   2.61661
    A3        2.46293   0.00614   0.00000   0.06573   0.05906   2.52199
    A4        1.71965   0.00646   0.00000  -0.02820  -0.02922   1.69043
    A5        2.50054   0.00509   0.00000   0.06260   0.05497   2.55551
    A6        1.31196   0.01371   0.00000  -0.06762  -0.06650   1.24547
    A7        2.03409  -0.01432   0.00000  -0.05240  -0.04665   1.98743
    A8        2.51567  -0.00184   0.00000  -0.02265  -0.02508   2.49059
    A9        1.60381   0.00156   0.00000   0.04813   0.04834   1.65215
   A10        2.55862  -0.00236   0.00000  -0.03005  -0.03236   2.52626
   A11        1.08900  -0.00700   0.00000   0.06720   0.06748   1.15648
   A12        2.09695   0.00083   0.00000  -0.01391  -0.01291   2.08404
    D1        0.80821   0.00140   0.00000  -0.08978  -0.09278   0.71543
    D2       -1.89587   0.01069   0.00000  -0.01752  -0.01554  -1.91141
    D3       -0.62202   0.00177   0.00000  -0.13883  -0.13800  -0.76002
    D4        2.07641   0.00426   0.00000  -0.09590  -0.09761   1.97880
    D5       -0.19268  -0.00394   0.00000   0.23643   0.23758   0.04490
    D6       -2.00224   0.00419   0.00000   0.16040   0.16418  -1.83806
    D7        1.80956  -0.00813   0.00000   0.07603   0.07340   1.88296
         Item               Value     Threshold  Converged?
 Maximum Force            0.038674     0.000450     NO 
 RMS     Force            0.011171     0.000300     NO 
 Maximum Displacement     0.077763     0.001800     NO 
 RMS     Displacement     0.029531     0.001200     NO 
 Predicted change in Energy= 2.391125D-03
 GradGradGradGradGradGradGradGradGradGradGradGradGradGradGradGradGradGrad

                          Input orientation:                          
 ---------------------------------------------------------------------
 Center     Atomic      Atomic             Coordinates (Angstroms)
 Number     Number       Type             X           Y           Z
 ---------------------------------------------------------------------
      1          6           0        0.042798   -0.072481   -0.088567
      2          6           0        0.209074    0.210893    1.274063
      3          6           0        1.236504   -0.382095    0.528101
      4          1           0       -0.551858    0.006588   -0.985493
      5          1           0       -0.294587    0.265922    2.230416
      6          1           0        2.030736   -1.116529    0.546207
      7          9           0        1.620555    1.471575    1.073294
 ---------------------------------------------------------------------
                    Distance matrix (angstroms):
                    1          2          3          4          5
     1  C    0.000000
     2  C    1.401681   0.000000
     3  C    1.378795   1.401322   0.000000
     4  H    1.079048   2.392980   2.374928   0.000000
     5  H    2.367705   1.082273   2.379504   3.236590   0.000000
     6  H    2.333425   2.368602   1.081908   3.205821   3.186669
     7  F    2.494664   1.903131   1.969980   3.332292   2.541712
                    6          7
     6  H    0.000000
     7  F    2.672892   0.000000
 Stoichiometry    C3H3F
 Framework group  C1[X(C3H3F)]
 Deg. of freedom    15
 Full point group                 C1      NOp   1
 Largest Abelian subgroup         C1      NOp   1
 Largest concise Abelian subgroup C1      NOp   1
                         Standard orientation:                         
 ---------------------------------------------------------------------
 Center     Atomic      Atomic             Coordinates (Angstroms)
 Number     Number       Type             X           Y           Z
 ---------------------------------------------------------------------
      1          6           0        1.110908    0.066259    0.471892
      2          6           0        0.235255    0.675626   -0.437290
      3          6           0        0.343803   -0.719453   -0.361944
      4          1           0        1.796868    0.156313    1.299958
      5          1           0        0.088578    1.535290   -1.078210
      6          1           0        0.359876   -1.636606   -0.935614
      7          9           0       -1.376124   -0.021066    0.297546
 ---------------------------------------------------------------------
 Rotational constants (GHZ):     17.6114670      7.4321766      6.9227944
 Standard basis: 6-31G(d) (6D, 7F)
 There are    66 symmetry adapted cartesian basis functions of A   symmetry.
 There are    66 symmetry adapted basis functions of A   symmetry.
    66 basis functions,   124 primitive gaussians,    66 cartesian basis functions
    15 alpha electrons       15 beta electrons
       nuclear repulsion energy       104.4081047310 Hartrees.
 NAtoms=    7 NActive=    7 NUniq=    7 SFac= 1.00D+00 NAtFMM=   60 NAOKFM=F Big=F
 Integral buffers will be    131072 words long.
 Raffenetti 2 integral format.
 Two-electron integral symmetry is turned on.
 One-electron integrals computed using PRISM.
 NBasis=    66 RedAO= T EigKep=  2.57D-03  NBF=    66
 NBsUse=    66 1.00D-06 EigRej= -1.00D+00 NBFU=    66
 Initial guess from the checkpoint file:  "/scratch/hollas/GAUSS_qst2.com_385487/Gau-31553.chk"
 B after Tr=     0.000000    0.000000    0.000000
         Rot=    0.997945   -0.061510   -0.000154    0.017926 Ang=  -7.35 deg.
 ExpMin= 1.61D-01 ExpMax= 7.00D+03 ExpMxC= 1.05D+03 IAcc=1 IRadAn=         1 AccDes= 0.00D+00
 Harris functional with IExCor=  402 and IRadAn=       1 diagonalized for initial guess.
 HarFok:  IExCor=  402 AccDes= 0.00D+00 IRadAn=         1 IDoV= 1 UseB2=F ITyADJ=14
 ICtDFT=  3500011 ScaDFX=  1.000000  1.000000  1.000000  1.000000
 FoFCou: FMM=F IPFlag=           0 FMFlag=      100000 FMFlg1=           0
         NFxFlg=           0 DoJE=T BraDBF=F KetDBF=T FulRan=T
         wScrn=  0.000000 ICntrl=     500 IOpCl=  0 I1Cent=   200000004 NGrid=           0
         NMat0=    1 NMatS0=      1 NMatT0=    0 NMatD0=    1 NMtDS0=    0 NMtDT0=    0
 Petite list used in FoFCou.
 Keep R1 ints in memory in canonical form, NReq=3363530.
 Requested convergence on RMS density matrix=1.00D-08 within 128 cycles.
 Requested convergence on MAX density matrix=1.00D-06.
 Requested convergence on             energy=1.00D-06.
 No special actions if energy rises.
 Integral accuracy reduced to 1.0D-05 until final iterations.
 Initial convergence to 1.0D-05 achieved.  Increase integral accuracy.
 SCF Done:  E(RB3LYP) =  -215.771898040     A.U. after   14 cycles
            NFock= 14  Conv=0.84D-08     -V/T= 2.0086
 Calling FoFJK, ICntrl=      2127 FMM=F ISym2X=0 I1Cent= 0 IOpClX= 0 NMat=1 NMatS=1 NMatT=0.
 ***** Axes restored to original set *****
 -------------------------------------------------------------------
 Center     Atomic                   Forces (Hartrees/Bohr)
 Number     Number              X              Y              Z
 -------------------------------------------------------------------
      1        6           0.008978898   -0.009272983    0.022143751
      2        6           0.014906198   -0.003004109   -0.030781970
      3        6          -0.037690978   -0.012826417   -0.003142400
      4        1           0.002778187    0.005236867   -0.000066390
      5        1           0.006136547    0.004381003   -0.000160141
      6        1           0.006745297    0.010461602    0.001853738
      7        9          -0.001854149    0.005024038    0.010153412
 -------------------------------------------------------------------
 Cartesian Forces:  Max     0.037690978 RMS     0.013474632

 GradGradGradGradGradGradGradGradGradGradGradGradGradGradGradGradGradGrad
 Berny optimization.
 FormGI is forming the generalized inverse of G from B-inverse, IUseBI=4.
 Internal  Forces:  Max     0.015559074 RMS     0.006282786
 Search for a saddle point.
 Step number   3 out of a maximum of   37
 All quantities printed in internal units (Hartrees-Bohrs-Radians)
 Update second derivatives using D2CorX and points    1    2    3
 ITU=  0  0  0
 LST/QST climbing along tangent vector
     Eigenvalues ---   -0.05527  -0.00713   0.02268   0.05623   0.07634
     Eigenvalues ---    0.08233   0.10417   0.15336   0.19467   0.35332
     Eigenvalues ---    0.35348   0.35899   0.36298   0.36897   0.43735
     Eigenvalues --- 1000.000001000.000001000.000001000.000001000.00000
     Eigenvalues --- 1000.000001000.000001000.000001000.000001000.00000
     Eigenvalues --- 1000.000001000.00000
 Eigenvectors required to have negative eigenvalues:
                          D5        R6        R8        A6        A11
   1                    0.46296   0.37421  -0.37222  -0.26731   0.25893
                          D6        D3        D7        D1        D4
   1                    0.23814  -0.22506   0.22483  -0.22383  -0.21291
 QST in optimization variable space.
                        Tangent   TS vect  // Eig F  Eigenval
   1         R1         0.04653  -0.04653  -0.01054  -0.05527
   2         R2        -0.04447   0.04447   0.00501  -0.00713
   3         R3         0.00004  -0.00004   0.00040   0.02268
   4         R4         0.00166  -0.00166  -0.00537   0.05623
   5         R5         0.00319  -0.00319   0.00006   0.07634
   6         R6        -0.37421   0.37421  -0.00142   0.08233
   7         R7        -0.00303   0.00303   0.00158   0.10417
   8         R8         0.37222  -0.37222   0.00043   0.15336
   9         A1        -0.00046   0.00046   0.00129   0.19467
  10         A2         0.00122  -0.00122  -0.00081   0.35332
  11         A3        -0.05526   0.05526  -0.00164   0.35348
  12         A4         0.14077  -0.14077  -0.00049   0.35899
  13         A5        -0.06284   0.06284   0.00150   0.36298
  14         A6         0.26731  -0.26731  -0.00340   0.36897
  15         A7        -0.08330   0.08330  -0.01268   0.43735
  16         A8         0.06391  -0.06391   0.000001000.00000
  17         A9        -0.13702   0.13702   0.000001000.00000
  18         A10        0.06692  -0.06692   0.000001000.00000
  19         A11       -0.25893   0.25893   0.000001000.00000
  20         A12        0.07140  -0.07140   0.000001000.00000
  21         D1         0.22383  -0.22383   0.000001000.00000
  22         D2         0.21187  -0.21187   0.000001000.00000
  23         D3         0.22506  -0.22506   0.000001000.00000
  24         D4         0.21291  -0.21291   0.000001000.00000
  25         D5        -0.46296   0.46296   0.000001000.00000
  26         D6        -0.23814   0.23814   0.000001000.00000
  27         D7        -0.22483   0.22483   0.000001000.00000
 RFO step:  Lambda0=1.942743263D-03 Lambda=-9.91536555D-03.
 Linear search not attempted -- option 19 set.
 Maximum step size (   0.300) exceeded in Quadratic search.
    -- Step size scaled by   0.703
 Iteration  1 RMS(Cart)=  0.06178354 RMS(Int)=  0.01911425
 Iteration  2 RMS(Cart)=  0.01116649 RMS(Int)=  0.00511503
 Iteration  3 RMS(Cart)=  0.00026765 RMS(Int)=  0.00511058
 Iteration  4 RMS(Cart)=  0.00000121 RMS(Int)=  0.00511058
 Iteration  5 RMS(Cart)=  0.00000002 RMS(Int)=  0.00511058
 Variable       Old X    -DE/DX   Delta X   Delta X   Delta X     New X
                                 (Linear)    (Quad)   (Total)
    R1        2.64879  -0.01553   0.00000   0.00913   0.01192   2.66072
    R2        2.60554  -0.01403   0.00000  -0.04505  -0.05030   2.55525
    R3        2.03911  -0.00109   0.00000   0.00107   0.00107   2.04017
    R4        2.64812  -0.01556   0.00000  -0.02620  -0.02373   2.62439
    R5        2.04520  -0.00277   0.00000  -0.00560  -0.00560   2.03960
    R6        3.59640  -0.00405   0.00000  -0.09065  -0.09281   3.50358
    R7        2.04451  -0.00212   0.00000   0.00050   0.00050   2.04501
    R8        3.72272   0.00608   0.00000   0.07855   0.08041   3.80313
    A1        2.60337  -0.00109   0.00000  -0.03545  -0.03540   2.56797
    A2        2.61661   0.00104   0.00000   0.02782   0.02089   2.63750
    A3        2.52199   0.00114   0.00000   0.10319   0.09363   2.61561
    A4        1.69043   0.00572   0.00000   0.04714   0.04917   1.73960
    A5        2.55551  -0.00005   0.00000   0.05456   0.03599   2.59150
    A6        1.24547   0.00633   0.00000   0.06438   0.06695   1.31242
    A7        1.98743  -0.00822   0.00000  -0.20206  -0.19724   1.79020
    A8        2.49059   0.00214   0.00000  -0.02413  -0.02808   2.46251
    A9        1.65215   0.00076   0.00000  -0.00607  -0.00443   1.64772
   A10        2.52626   0.00220   0.00000  -0.03093  -0.02916   2.49710
   A11        1.15648  -0.00142   0.00000  -0.05591  -0.05769   1.09879
   A12        2.08404  -0.00348   0.00000   0.05580   0.05499   2.13903
    D1        0.71543   0.00081   0.00000  -0.09066  -0.09904   0.61639
    D2       -1.91141   0.00667   0.00000   0.13509   0.13381  -1.77760
    D3       -0.76002   0.00220   0.00000  -0.16106  -0.16332  -0.92334
    D4        1.97880  -0.00088   0.00000  -0.05656  -0.06222   1.91658
    D5        0.04490  -0.00238   0.00000   0.28920   0.28796   0.33286
    D6       -1.83806   0.00557   0.00000   0.26753   0.26760  -1.57046
    D7        1.88296  -0.00796   0.00000   0.02167   0.02036   1.90332
         Item               Value     Threshold  Converged?
 Maximum Force            0.015559     0.000450     NO 
 RMS     Force            0.006283     0.000300     NO 
 Maximum Displacement     0.181624     0.001800     NO 
 RMS     Displacement     0.070115     0.001200     NO 
 Predicted change in Energy=-3.801114D-03
 GradGradGradGradGradGradGradGradGradGradGradGradGradGradGradGradGradGrad

                          Input orientation:                          
 ---------------------------------------------------------------------
 Center     Atomic      Atomic             Coordinates (Angstroms)
 Number     Number       Type             X           Y           Z
 ---------------------------------------------------------------------
      1          6           0        0.057937   -0.114266   -0.105566
      2          6           0        0.218299    0.176738    1.262658
      3          6           0        1.231510   -0.395293    0.504466
      4          1           0       -0.535920    0.018438   -0.997353
      5          1           0       -0.213120    0.357005    2.235433
      6          1           0        2.010073   -1.146576    0.527134
      7          9           0        1.524444    1.487826    1.151251
 ---------------------------------------------------------------------
                    Distance matrix (angstroms):
                    1          2          3          4          5
     1  C    0.000000
     2  C    1.407990   0.000000
     3  C    1.352179   1.388765   0.000000
     4  H    1.079612   2.387793   2.355938   0.000000
     5  H    2.403298   1.079310   2.376794   3.266456   0.000000
     6  H    2.297130   2.345764   1.082174   3.188009   3.181450
     7  F    2.509369   1.854017   2.012530   3.319745   2.339516
                    6          7
     6  H    0.000000
     7  F    2.750533   0.000000
 Stoichiometry    C3H3F
 Framework group  C1[X(C3H3F)]
 Deg. of freedom    15
 Full point group                 C1      NOp   1
 Largest Abelian subgroup         C1      NOp   1
 Largest concise Abelian subgroup C1      NOp   1
                         Standard orientation:                         
 ---------------------------------------------------------------------
 Center     Atomic      Atomic             Coordinates (Angstroms)
 Number     Number       Type             X           Y           Z
 ---------------------------------------------------------------------
      1          6           0        1.123373    0.176937    0.432683
      2          6           0        0.163134    0.606572   -0.503154
      3          6           0        0.423995   -0.738342   -0.275499
      4          1           0        1.770832    0.442753    1.254693
      5          1           0       -0.222973    1.370477   -1.160634
      6          1           0        0.546803   -1.691908   -0.772220
      7          9           0       -1.373075   -0.043591    0.305998
 ---------------------------------------------------------------------
 Rotational constants (GHZ):     18.2362181      7.4057180      6.9013247
 Standard basis: 6-31G(d) (6D, 7F)
 There are    66 symmetry adapted cartesian basis functions of A   symmetry.
 There are    66 symmetry adapted basis functions of A   symmetry.
    66 basis functions,   124 primitive gaussians,    66 cartesian basis functions
    15 alpha electrons       15 beta electrons
       nuclear repulsion energy       104.9184433818 Hartrees.
 NAtoms=    7 NActive=    7 NUniq=    7 SFac= 1.00D+00 NAtFMM=   60 NAOKFM=F Big=F
 Integral buffers will be    131072 words long.
 Raffenetti 2 integral format.
 Two-electron integral symmetry is turned on.
 One-electron integrals computed using PRISM.
 NBasis=    66 RedAO= T EigKep=  2.54D-03  NBF=    66
 NBsUse=    66 1.00D-06 EigRej= -1.00D+00 NBFU=    66
 Initial guess from the checkpoint file:  "/scratch/hollas/GAUSS_qst2.com_385487/Gau-31553.chk"
 B after Tr=     0.000000    0.000000    0.000000
         Rot=    0.997668    0.058188   -0.006814   -0.035028 Ang=   7.83 deg.
 ExpMin= 1.61D-01 ExpMax= 7.00D+03 ExpMxC= 1.05D+03 IAcc=1 IRadAn=         1 AccDes= 0.00D+00
 Harris functional with IExCor=  402 and IRadAn=       1 diagonalized for initial guess.
 HarFok:  IExCor=  402 AccDes= 0.00D+00 IRadAn=         1 IDoV= 1 UseB2=F ITyADJ=14
 ICtDFT=  3500011 ScaDFX=  1.000000  1.000000  1.000000  1.000000
 FoFCou: FMM=F IPFlag=           0 FMFlag=      100000 FMFlg1=           0
         NFxFlg=           0 DoJE=T BraDBF=F KetDBF=T FulRan=T
         wScrn=  0.000000 ICntrl=     500 IOpCl=  0 I1Cent=   200000004 NGrid=           0
         NMat0=    1 NMatS0=      1 NMatT0=    0 NMatD0=    1 NMtDS0=    0 NMtDT0=    0
 Petite list used in FoFCou.
 Keep R1 ints in memory in canonical form, NReq=3363530.
 Requested convergence on RMS density matrix=1.00D-08 within 128 cycles.
 Requested convergence on MAX density matrix=1.00D-06.
 Requested convergence on             energy=1.00D-06.
 No special actions if energy rises.
 Integral accuracy reduced to 1.0D-05 until final iterations.
 Initial convergence to 1.0D-05 achieved.  Increase integral accuracy.
 SCF Done:  E(RB3LYP) =  -215.775278531     A.U. after   15 cycles
            NFock= 15  Conv=0.45D-08     -V/T= 2.0082
 Calling FoFJK, ICntrl=      2127 FMM=F ISym2X=0 I1Cent= 0 IOpClX= 0 NMat=1 NMatS=1 NMatT=0.
 ***** Axes restored to original set *****
 -------------------------------------------------------------------
 Center     Atomic                   Forces (Hartrees/Bohr)
 Number     Number              X              Y              Z
 -------------------------------------------------------------------
      1        6          -0.006568335   -0.001461346    0.011898903
      2        6           0.024349876    0.028454825   -0.020614888
      3        6          -0.021350534   -0.042607140   -0.001893860
      4        1           0.002974552    0.003199208   -0.000179792
      5        1          -0.000378646   -0.006337260   -0.000544697
      6        1           0.010152486    0.012892306    0.000617516
      7        9          -0.009179399    0.005859406    0.010716819
 -------------------------------------------------------------------
 Cartesian Forces:  Max     0.042607140 RMS     0.015200338

 GradGradGradGradGradGradGradGradGradGradGradGradGradGradGradGradGradGrad
 Berny optimization.
 FormGI is forming the generalized inverse of G from B-inverse, IUseBI=4.
 Internal  Forces:  Max     0.010952558 RMS     0.005367773
 Search for a saddle point.
 Step number   4 out of a maximum of   37
 All quantities printed in internal units (Hartrees-Bohrs-Radians)
 Update second derivatives using D2CorX and points    3    4
 ITU=  0  0  0  0
 LST/QST climbing along tangent vector
     Eigenvalues ---   -0.05798  -0.00434   0.02277   0.05541   0.07873
     Eigenvalues ---    0.09118   0.10563   0.14288   0.18626   0.35333
     Eigenvalues ---    0.35348   0.35898   0.35991   0.36960   0.44008
     Eigenvalues --- 1000.000001000.000001000.000001000.000001000.00000
     Eigenvalues --- 1000.000001000.000001000.000001000.000001000.00000
     Eigenvalues --- 1000.000001000.00000
 Eigenvectors required to have negative eigenvalues:
                          D5        R6        R8        A6        A11
   1                    0.45907   0.37375  -0.36723  -0.27618   0.25514
                          D6        D1        D3        D4        D2
   1                    0.24491  -0.22837  -0.22358  -0.21615  -0.21471
 QST in optimization variable space.
                        Tangent   TS vect  // Eig F  Eigenval
   1         R1         0.04425  -0.04425  -0.02096  -0.05798
   2         R2        -0.03829   0.03829   0.00294  -0.00434
   3         R3        -0.00004   0.00004   0.00050   0.02277
   4         R4         0.00021  -0.00021  -0.00401   0.05541
   5         R5         0.00296  -0.00296  -0.00008   0.07873
   6         R6        -0.37375   0.37375   0.00053   0.09118
   7         R7        -0.00321   0.00321   0.00091   0.10563
   8         R8         0.36723  -0.36723   0.00125   0.14288
   9         A1         0.00385  -0.00385  -0.00053   0.18626
  10         A2         0.00113  -0.00113   0.00011   0.35333
  11         A3        -0.03186   0.03186  -0.00097   0.35348
  12         A4         0.14717  -0.14717  -0.00110   0.35898
  13         A5        -0.02629   0.02629   0.00286   0.35991
  14         A6         0.27618  -0.27618   0.00544   0.36960
  15         A7        -0.11001   0.11001  -0.00408   0.44008
  16         A8         0.07459  -0.07459   0.000001000.00000
  17         A9        -0.13830   0.13830   0.000001000.00000
  18         A10        0.06993  -0.06993   0.000001000.00000
  19         A11       -0.25514   0.25514   0.000001000.00000
  20         A12        0.06340  -0.06340   0.000001000.00000
  21         D1         0.22837  -0.22837   0.000001000.00000
  22         D2         0.21471  -0.21471   0.000001000.00000
  23         D3         0.22358  -0.22358   0.000001000.00000
  24         D4         0.21615  -0.21615   0.000001000.00000
  25         D5        -0.45907   0.45907   0.000001000.00000
  26         D6        -0.24491   0.24491   0.000001000.00000
  27         D7        -0.21417   0.21417   0.000001000.00000
 RFO step:  Lambda0=6.785867761D-03 Lambda=-5.91570467D-03.
 Linear search not attempted -- option 19 set.
 Maximum step size (   0.300) exceeded in Quadratic search.
    -- Step size scaled by   0.850
 Iteration  1 RMS(Cart)=  0.06018194 RMS(Int)=  0.04380457
 Iteration  2 RMS(Cart)=  0.02386163 RMS(Int)=  0.00820989
 Iteration  3 RMS(Cart)=  0.00166112 RMS(Int)=  0.00806847
 Iteration  4 RMS(Cart)=  0.00002172 RMS(Int)=  0.00806843
 Iteration  5 RMS(Cart)=  0.00000066 RMS(Int)=  0.00806843
 Variable       Old X    -DE/DX   Delta X   Delta X   Delta X     New X
                                 (Linear)    (Quad)   (Total)
    R1        2.66072  -0.01095   0.00000   0.01460   0.01607   2.67679
    R2        2.55525   0.00199   0.00000  -0.01875  -0.02488   2.53037
    R3        2.04017  -0.00109   0.00000   0.00014   0.00014   2.04031
    R4        2.62439  -0.00391   0.00000   0.00320   0.00823   2.63261
    R5        2.03960  -0.00140   0.00000  -0.00403  -0.00403   2.03557
    R6        3.50358  -0.00819   0.00000  -0.08449  -0.08734   3.41625
    R7        2.04501  -0.00163   0.00000   0.00092   0.00092   2.04593
    R8        3.80313   0.00919   0.00000   0.05321   0.05529   3.85842
    A1        2.56797  -0.00266   0.00000  -0.06331  -0.06085   2.50712
    A2        2.63750   0.00161   0.00000   0.03628   0.02103   2.65854
    A3        2.61561  -0.00192   0.00000   0.09238   0.07591   2.69152
    A4        1.73960   0.00700   0.00000   0.03624   0.04332   1.78292
    A5        2.59150  -0.00251   0.00000   0.02617   0.00311   2.59461
    A6        1.31242   0.00731   0.00000   0.04907   0.05040   1.36282
    A7        1.79020  -0.00684   0.00000  -0.20674  -0.20313   1.58707
    A8        2.46251   0.00459   0.00000  -0.05295  -0.06428   2.39823
    A9        1.64772  -0.00476   0.00000  -0.01163  -0.00536   1.64236
   A10        2.49710   0.00624   0.00000  -0.03318  -0.03036   2.46675
   A11        1.09879  -0.00553   0.00000  -0.04924  -0.05100   1.04779
   A12        2.13903  -0.00025   0.00000   0.08926   0.09018   2.22921
    D1        0.61639   0.00294   0.00000  -0.18278  -0.19729   0.41910
    D2       -1.77760   0.00781   0.00000   0.12362   0.12067  -1.65693
    D3       -0.92334   0.00412   0.00000  -0.22920  -0.23331  -1.15666
    D4        1.91658   0.00142   0.00000  -0.10082  -0.10848   1.80810
    D5        0.33286  -0.00710   0.00000   0.41694   0.40948   0.74234
    D6       -1.57046   0.00063   0.00000   0.32617   0.31966  -1.25080
    D7        1.90332  -0.00773   0.00000   0.09077   0.08982   1.99314
         Item               Value     Threshold  Converged?
 Maximum Force            0.010953     0.000450     NO 
 RMS     Force            0.005368     0.000300     NO 
 Maximum Displacement     0.199816     0.001800     NO 
 RMS     Displacement     0.073116     0.001200     NO 
 Predicted change in Energy= 4.311279D-03
 GradGradGradGradGradGradGradGradGradGradGradGradGradGradGradGradGradGrad

                          Input orientation:                          
 ---------------------------------------------------------------------
 Center     Atomic      Atomic             Coordinates (Angstroms)
 Number     Number       Type             X           Y           Z
 ---------------------------------------------------------------------
      1          6           0        0.077176   -0.159687   -0.119967
      2          6           0        0.220540    0.141807    1.256625
      3          6           0        1.246990   -0.399521    0.485816
      4          1           0       -0.523764    0.036778   -0.995178
      5          1           0       -0.136761    0.455821    2.223086
      6          1           0        1.990337   -1.186522    0.500564
      7          9           0        1.418706    1.495196    1.227076
 ---------------------------------------------------------------------
                    Distance matrix (angstroms):
                    1          2          3          4          5
     1  C    0.000000
     2  C    1.416495   0.000000
     3  C    1.339014   1.393120   0.000000
     4  H    1.079686   2.373949   2.349313   0.000000
     5  H    2.431978   1.077179   2.380017   3.268423   0.000000
     6  H    2.258237   2.338433   1.082660   3.170869   3.192008
     7  F    2.520489   1.807800   2.041790   3.292201   2.119390
                    6          7
     6  H    0.000000
     7  F    2.836582   0.000000
 Stoichiometry    C3H3F
 Framework group  C1[X(C3H3F)]
 Deg. of freedom    15
 Full point group                 C1      NOp   1
 Largest Abelian subgroup         C1      NOp   1
 Largest concise Abelian subgroup C1      NOp   1
                         Standard orientation:                         
 ---------------------------------------------------------------------
 Center     Atomic      Atomic             Coordinates (Angstroms)
 Number     Number       Type             X           Y           Z
 ---------------------------------------------------------------------
      1          6           0        1.132684    0.274244    0.378276
      2          6           0        0.105537    0.528961   -0.563289
      3          6           0        0.484816   -0.755749   -0.180601
      4          1           0        1.718683    0.720244    1.167839
      5          1           0       -0.496931    1.160792   -1.194270
      6          1           0        0.735065   -1.722874   -0.597970
      7          9           0       -1.366116   -0.049211    0.313121
 ---------------------------------------------------------------------
 Rotational constants (GHZ):     18.8431077      7.3998607      6.8669738
 Standard basis: 6-31G(d) (6D, 7F)
 There are    66 symmetry adapted cartesian basis functions of A   symmetry.
 There are    66 symmetry adapted basis functions of A   symmetry.
    66 basis functions,   124 primitive gaussians,    66 cartesian basis functions
    15 alpha electrons       15 beta electrons
       nuclear repulsion energy       105.2708429485 Hartrees.
 NAtoms=    7 NActive=    7 NUniq=    7 SFac= 1.00D+00 NAtFMM=   60 NAOKFM=F Big=F
 Integral buffers will be    131072 words long.
 Raffenetti 2 integral format.
 Two-electron integral symmetry is turned on.
 One-electron integrals computed using PRISM.
 NBasis=    66 RedAO= T EigKep=  2.75D-03  NBF=    66
 NBsUse=    66 1.00D-06 EigRej= -1.00D+00 NBFU=    66
 Initial guess from the checkpoint file:  "/scratch/hollas/GAUSS_qst2.com_385487/Gau-31553.chk"
 B after Tr=     0.000000    0.000000    0.000000
         Rot=    0.997623    0.062058   -0.007509   -0.029009 Ang=   7.90 deg.
 ExpMin= 1.61D-01 ExpMax= 7.00D+03 ExpMxC= 1.05D+03 IAcc=1 IRadAn=         1 AccDes= 0.00D+00
 Harris functional with IExCor=  402 and IRadAn=       1 diagonalized for initial guess.
 HarFok:  IExCor=  402 AccDes= 0.00D+00 IRadAn=         1 IDoV= 1 UseB2=F ITyADJ=14
 ICtDFT=  3500011 ScaDFX=  1.000000  1.000000  1.000000  1.000000
 FoFCou: FMM=F IPFlag=           0 FMFlag=      100000 FMFlg1=           0
         NFxFlg=           0 DoJE=T BraDBF=F KetDBF=T FulRan=T
         wScrn=  0.000000 ICntrl=     500 IOpCl=  0 I1Cent=   200000004 NGrid=           0
         NMat0=    1 NMatS0=      1 NMatT0=    0 NMatD0=    1 NMtDS0=    0 NMtDT0=    0
 Petite list used in FoFCou.
 Keep R1 ints in memory in canonical form, NReq=3363530.
 Requested convergence on RMS density matrix=1.00D-08 within 128 cycles.
 Requested convergence on MAX density matrix=1.00D-06.
 Requested convergence on             energy=1.00D-06.
 No special actions if energy rises.
 Integral accuracy reduced to 1.0D-05 until final iterations.
 Initial convergence to 1.0D-05 achieved.  Increase integral accuracy.
 SCF Done:  E(RB3LYP) =  -215.771085885     A.U. after   15 cycles
            NFock= 15  Conv=0.20D-08     -V/T= 2.0080
 Calling FoFJK, ICntrl=      2127 FMM=F ISym2X=0 I1Cent= 0 IOpClX= 0 NMat=1 NMatS=1 NMatT=0.
 ***** Axes restored to original set *****
 -------------------------------------------------------------------
 Center     Atomic                   Forces (Hartrees/Bohr)
 Number     Number              X              Y              Z
 -------------------------------------------------------------------
      1        6          -0.017774750    0.008937646    0.008471528
      2        6           0.035270429    0.045904092   -0.019446425
      3        6          -0.017237852   -0.061465003    0.002426020
      4        1           0.003324755    0.000114961   -0.001576617
      5        1          -0.008312548   -0.017038340    0.002220199
      6        1           0.014783274    0.015197112    0.000396069
      7        9          -0.010053307    0.008349533    0.007509226
 -------------------------------------------------------------------
 Cartesian Forces:  Max     0.061465003 RMS     0.021081057

 GradGradGradGradGradGradGradGradGradGradGradGradGradGradGradGradGradGrad
 Berny optimization.
 FormGI is forming the generalized inverse of G from B-inverse, IUseBI=4.
 Internal  Forces:  Max     0.011999070 RMS     0.006491956
 Search for a saddle point.
 Step number   5 out of a maximum of   37
 All quantities printed in internal units (Hartrees-Bohrs-Radians)
 Update second derivatives using D2CorX and points    4    5
 ITU=  0  0  0  0  0
     Eigenvalues ---   -0.08214   0.01025   0.02355   0.06292   0.07563
     Eigenvalues ---    0.10058   0.11520   0.13461   0.16456   0.35330
     Eigenvalues ---    0.35348   0.35566   0.35901   0.37595   0.43999
     Eigenvalues --- 1000.000001000.000001000.000001000.000001000.00000
     Eigenvalues --- 1000.000001000.000001000.000001000.000001000.00000
     Eigenvalues --- 1000.000001000.00000
 Eigenvectors required to have negative eigenvalues:
                          R6        R8        A6        A11       D4
   1                    0.48954  -0.42167  -0.34173   0.31301  -0.24730
                          D2        A7        D5        A4        A12
   1                   -0.23200   0.22650   0.21685  -0.16963  -0.16715
 QST in optimization variable space.
                        Tangent   TS vect  // Eig F  Eigenval
   1         R1         0.04903  -0.11048  -0.01883  -0.08214
   2         R2        -0.04182   0.11691  -0.00818   0.01025
   3         R3        -0.00015  -0.00181   0.00293   0.02355
   4         R4        -0.00467  -0.01355  -0.01177   0.06292
   5         R5         0.00216  -0.00205   0.00612   0.07563
   6         R6        -0.39448   0.48954   0.00518   0.10058
   7         R7        -0.00355   0.00114   0.00409   0.11520
   8         R8         0.38155  -0.42167   0.00029   0.13461
   9         A1         0.00430   0.03060   0.00333   0.16456
  10         A2         0.00489  -0.03468   0.00136   0.35330
  11         A3        -0.00461  -0.05333  -0.00047   0.35348
  12         A4         0.15677  -0.16963   0.00568   0.35566
  13         A5         0.01539  -0.01195  -0.00061   0.35901
  14         A6         0.29709  -0.34173   0.02104   0.37595
  15         A7        -0.14904   0.22650   0.00012   0.43999
  16         A8         0.08960  -0.00420   0.000001000.00000
  17         A9        -0.14642   0.14703   0.000001000.00000
  18         A10        0.07756   0.00301   0.000001000.00000
  19         A11       -0.26305   0.31301   0.000001000.00000
  20         A12        0.05954  -0.16715   0.000001000.00000
  21         D1         0.21912  -0.11907   0.000001000.00000
  22         D2         0.23652  -0.23200   0.000001000.00000
  23         D3         0.20061  -0.07485   0.000001000.00000
  24         D4         0.21497  -0.24730   0.000001000.00000
  25         D5        -0.41677   0.21685   0.000001000.00000
  26         D6        -0.21445   0.13709   0.000001000.00000
  27         D7        -0.20233   0.07976   0.000001000.00000
 RFO step:  Lambda0=4.109725125D-03 Lambda=-8.02854898D-03.
 Linear search not attempted -- option 19 set.
 Maximum step size (   0.300) exceeded in Quadratic search.
    -- Step size scaled by   0.778
 Iteration  1 RMS(Cart)=  0.06906656 RMS(Int)=  0.00445752
 Iteration  2 RMS(Cart)=  0.00273494 RMS(Int)=  0.00217954
 Iteration  3 RMS(Cart)=  0.00000964 RMS(Int)=  0.00217952
 Iteration  4 RMS(Cart)=  0.00000007 RMS(Int)=  0.00217952
 Variable       Old X    -DE/DX   Delta X   Delta X   Delta X     New X
                                 (Linear)    (Quad)   (Total)
    R1        2.67679  -0.00985   0.00000  -0.04720  -0.04883   2.62796
    R2        2.53037   0.01170   0.00000   0.04852   0.04842   2.57879
    R3        2.04031  -0.00055   0.00000  -0.00234  -0.00234   2.03797
    R4        2.63261  -0.00151   0.00000  -0.01571  -0.01258   2.62003
    R5        2.03557  -0.00022   0.00000  -0.00049  -0.00049   2.03508
    R6        3.41625  -0.00643   0.00000   0.14010   0.13938   3.55563
    R7        2.04593  -0.00089   0.00000  -0.00308  -0.00308   2.04285
    R8        3.85842   0.01040   0.00000  -0.08982  -0.09010   3.76832
    A1        2.50712  -0.00217   0.00000   0.02282   0.02307   2.53019
    A2        2.65854   0.00233   0.00000  -0.01312  -0.01543   2.64311
    A3        2.69152  -0.00697   0.00000  -0.05007  -0.05095   2.64057
    A4        1.78292   0.00578   0.00000  -0.04867  -0.04614   1.73679
    A5        2.59461  -0.00070   0.00000   0.00858   0.00532   2.59993
    A6        1.36282   0.00699   0.00000  -0.08168  -0.08085   1.28197
    A7        1.58707  -0.00368   0.00000   0.12661   0.12568   1.71275
    A8        2.39823   0.00741   0.00000   0.06734   0.06109   2.45932
    A9        1.64236  -0.00844   0.00000   0.01939   0.02046   1.66282
   A10        2.46675   0.00954   0.00000   0.06626   0.06344   2.53019
   A11        1.04779  -0.00538   0.00000   0.08161   0.08236   1.13015
   A12        2.22921   0.00010   0.00000  -0.11069  -0.11364   2.11557
    D1        0.41910   0.00321   0.00000   0.09889   0.09483   0.51393
    D2       -1.65693   0.00842   0.00000  -0.05070  -0.04916  -1.70609
    D3       -1.15666   0.00723   0.00000   0.12495   0.12516  -1.03150
    D4        1.80810   0.00041   0.00000  -0.04728  -0.04928   1.75882
    D5        0.74234  -0.01200   0.00000  -0.19981  -0.20179   0.54056
    D6       -1.25080  -0.00551   0.00000  -0.10847  -0.11092  -1.36172
    D7        1.99314  -0.00649   0.00000  -0.09134  -0.09087   1.90228
         Item               Value     Threshold  Converged?
 Maximum Force            0.011999     0.000450     NO 
 RMS     Force            0.006492     0.000300     NO 
 Maximum Displacement     0.201602     0.001800     NO 
 RMS     Displacement     0.069850     0.001200     NO 
 Predicted change in Energy=-2.433528D-03
 GradGradGradGradGradGradGradGradGradGradGradGradGradGradGradGradGradGrad

                          Input orientation:                          
 ---------------------------------------------------------------------
 Center     Atomic      Atomic             Coordinates (Angstroms)
 Number     Number       Type             X           Y           Z
 ---------------------------------------------------------------------
      1          6           0        0.047351   -0.143747   -0.098789
      2          6           0        0.195316    0.136781    1.255216
      3          6           0        1.237085   -0.403640    0.517019
      4          1           0       -0.538782    0.052841   -0.982448
      5          1           0       -0.214162    0.404186    2.214685
      6          1           0        2.041025   -1.126344    0.518104
      7          9           0        1.525389    1.463794    1.154236
 ---------------------------------------------------------------------
                    Distance matrix (angstroms):
                    1          2          3          4          5
     1  C    0.000000
     2  C    1.390654   0.000000
     3  C    1.364635   1.386461   0.000000
     4  H    1.078449   2.356499   2.368645   0.000000
     5  H    2.391815   1.076920   2.375031   3.232720   0.000000
     6  H    2.306683   2.354880   1.081028   3.208978   3.210417
     7  F    2.517708   1.881557   1.994110   3.288922   2.296380
                    6          7
     6  H    0.000000
     7  F    2.716498   0.000000
 Stoichiometry    C3H3F
 Framework group  C1[X(C3H3F)]
 Deg. of freedom    15
 Full point group                 C1      NOp   1
 Largest Abelian subgroup         C1      NOp   1
 Largest concise Abelian subgroup C1      NOp   1
                         Standard orientation:                         
 ---------------------------------------------------------------------
 Center     Atomic      Atomic             Coordinates (Angstroms)
 Number     Number       Type             X           Y           Z
 ---------------------------------------------------------------------
      1          6           0        1.134461    0.163678    0.422793
      2          6           0        0.202842    0.603451   -0.511339
      3          6           0        0.393609   -0.748599   -0.270834
      4          1           0        1.733424    0.447267    1.273601
      5          1           0       -0.235792    1.380568   -1.114204
      6          1           0        0.477338   -1.725493   -0.726123
      7          9           0       -1.373382   -0.023725    0.302556
 ---------------------------------------------------------------------
 Rotational constants (GHZ):     18.2330297      7.4264157      6.8805022
 Standard basis: 6-31G(d) (6D, 7F)
 There are    66 symmetry adapted cartesian basis functions of A   symmetry.
 There are    66 symmetry adapted basis functions of A   symmetry.
    66 basis functions,   124 primitive gaussians,    66 cartesian basis functions
    15 alpha electrons       15 beta electrons
       nuclear repulsion energy       104.9412487377 Hartrees.
 NAtoms=    7 NActive=    7 NUniq=    7 SFac= 1.00D+00 NAtFMM=   60 NAOKFM=F Big=F
 Integral buffers will be    131072 words long.
 Raffenetti 2 integral format.
 Two-electron integral symmetry is turned on.
 One-electron integrals computed using PRISM.
 NBasis=    66 RedAO= T EigKep=  2.66D-03  NBF=    66
 NBsUse=    66 1.00D-06 EigRej= -1.00D+00 NBFU=    66
 Initial guess from the checkpoint file:  "/scratch/hollas/GAUSS_qst2.com_385487/Gau-31553.chk"
 B after Tr=     0.000000    0.000000    0.000000
         Rot=    0.997526   -0.058240    0.008792    0.038372 Ang=  -8.06 deg.
 ExpMin= 1.61D-01 ExpMax= 7.00D+03 ExpMxC= 1.05D+03 IAcc=1 IRadAn=         1 AccDes= 0.00D+00
 Harris functional with IExCor=  402 and IRadAn=       1 diagonalized for initial guess.
 HarFok:  IExCor=  402 AccDes= 0.00D+00 IRadAn=         1 IDoV= 1 UseB2=F ITyADJ=14
 ICtDFT=  3500011 ScaDFX=  1.000000  1.000000  1.000000  1.000000
[...]
  YYZ=             -3.7800  XYZ=              0.0082
 Hexadecapole moment (field-independent basis, Debye-Ang**3):
 XXXX=           -145.1926 YYYY=            -56.6154 ZZZZ=            -47.1396 XXXY=              0.0088
 XXXZ=              4.6403 YYYX=             -0.0121 YYYZ=              0.0049 ZZZX=              1.4472
 ZZZY=              0.0017 XXYY=            -35.5472 XXZZ=            -27.4829 YYZZ=            -15.7971
 XXYZ=              0.0086 YYXZ=             -0.7532 ZZXY=              0.0028
 N-N= 1.048618459658D+02 E-N=-7.171574875168D+02  KE= 2.140562865836D+02
  Exact polarizability:  36.246   0.000  28.878   5.141   0.002  23.351
 Approx polarizability:  79.123  -0.002  43.691   7.022  -0.003  33.633
 Calling FoFJK, ICntrl=    100127 FMM=F ISym2X=0 I1Cent= 0 IOpClX= 0 NMat=1 NMatS=1 NMatT=0.
 Full mass-weighted force constant matrix:
 Low frequencies --- -680.8028  -17.8341   -0.0011   -0.0003   -0.0002    6.3338
 Low frequencies ---   16.4704  344.0587  490.6265
 ******    1 imaginary frequencies (negative Signs) ****** 
 Diagonal vibrational polarizability:
       29.9368982       1.0419291       2.3409737
 Harmonic frequencies (cm**-1), IR intensities (KM/Mole), Raman scattering
 activities (A**4/AMU), depolarization ratios for plane and unpolarized
 incident light, reduced masses (AMU), force constants (mDyne/A),
 and normal coordinates:
                      1                      2                      3
                      A                      A                      A
 Frequencies --   -680.8027               344.0587               490.6265
 Red. masses --     10.3354                 3.6322                 8.0409
 Frc consts  --      2.8224                 0.2533                 1.1404
 IR Inten    --      2.1452                23.3784               195.0338
  Atom  AN      X      Y      Z        X      Y      Z        X      Y      Z
     1   6     0.00   0.08   0.00     0.28   0.00  -0.13    -0.06   0.00   0.12
     2   6     0.54   0.16  -0.19     0.02  -0.01   0.14     0.30  -0.01  -0.24
     3   6    -0.54   0.16   0.19     0.02   0.01   0.14     0.30   0.01  -0.24
     4   1     0.00   0.06   0.00     0.75   0.00  -0.40     0.03   0.00   0.06
     5   1     0.24   0.20   0.06    -0.08  -0.01   0.19     0.45   0.07  -0.18
     6   1    -0.24   0.20  -0.06    -0.08   0.01   0.19     0.45  -0.07  -0.18
     7   9     0.00  -0.28   0.00    -0.23   0.00  -0.10    -0.38   0.00   0.24
                      4                      5                      6
                      A                      A                      A
 Frequencies --    717.4944               856.5659               867.1876
 Red. masses --      1.2141                 1.2498                 1.1664
 Frc consts  --      0.3682                 0.5403                 0.5168
 IR Inten    --     50.9589                 1.5623                48.5027
  Atom  AN      X      Y      Z        X      Y      Z        X      Y      Z
     1   6    -0.11   0.00   0.07     0.00  -0.04   0.00    -0.09   0.00   0.03
     2   6    -0.02   0.00   0.01    -0.05   0.08   0.00     0.02   0.01  -0.04
     3   6    -0.02   0.00   0.01     0.05   0.08   0.00     0.02  -0.01  -0.04
     4   1     0.72   0.00  -0.43    -0.01  -0.36   0.00     0.31  -0.01  -0.21
     5   1     0.22  -0.10  -0.29     0.42  -0.05  -0.51    -0.11   0.31   0.55
     6   1     0.22   0.10  -0.29    -0.42  -0.04   0.49    -0.13  -0.31   0.56
     7   9     0.03   0.00   0.00     0.00  -0.05   0.00     0.02   0.00  -0.01
                      7                      8                      9
                      A                      A                      A
 Frequencies --    955.1664               978.2210              1023.3869
 Red. masses --      1.1498                 1.1029                 1.3999
 Frc consts  --      0.6180                 0.6218                 0.8638
 IR Inten    --      7.2644                10.8865                 0.5373
  Atom  AN      X      Y      Z        X      Y      Z        X      Y      Z
     1   6     0.00   0.00   0.08     0.00   0.04   0.00     0.00  -0.11   0.00
     2   6     0.05  -0.02  -0.03    -0.01  -0.05   0.03     0.04   0.04   0.09
     3   6     0.05   0.03  -0.03     0.01  -0.05  -0.03    -0.04   0.04  -0.09
     4   1     0.17  -0.01  -0.02     0.00   0.53   0.00     0.00   0.79   0.00
     5   1    -0.63  -0.29  -0.10     0.53   0.20   0.15    -0.15  -0.25  -0.30
     6   1    -0.62   0.29  -0.09    -0.55   0.20  -0.16     0.15  -0.25   0.30
     7   9     0.00   0.00   0.00     0.00  -0.01   0.00     0.00   0.00   0.00
                     10                     11                     12
                      A                      A                      A
 Frequencies --   1227.8357              1304.8950              1643.4155
 Red. masses --      3.8653                 6.9430                 4.9000
 Frc consts  --      3.4333                 6.9654                 7.7973
 IR Inten    --     30.1703                 8.8510                40.3409
  Atom  AN      X      Y      Z        X      Y      Z        X      Y      Z
     1   6     0.00   0.32   0.00    -0.28   0.00  -0.28     0.24   0.00   0.24
     2   6     0.12  -0.12   0.23     0.19   0.36   0.17    -0.12   0.31  -0.12
     3   6    -0.12  -0.12  -0.23     0.19  -0.36   0.17    -0.12  -0.31  -0.12
     4   1     0.00  -0.47   0.00    -0.32   0.00  -0.30     0.32   0.00   0.32
     5   1     0.10  -0.43  -0.25    -0.29  -0.02  -0.22    -0.14   0.39  -0.22
     6   1    -0.10  -0.43   0.25    -0.29   0.02  -0.23    -0.14  -0.39  -0.22
     7   9     0.00   0.02   0.00    -0.02   0.00   0.00     0.00   0.00   0.01
                     13                     14                     15
                      A                      A                      A
 Frequencies --   3290.2644              3322.3820              3353.3393
 Red. masses --      1.0963                 1.0945                 1.1430
 Frc consts  --      6.9924                 7.1180                 7.5730
 IR Inten    --      0.9734                 0.8076                 0.1434
  Atom  AN      X      Y      Z        X      Y      Z        X      Y      Z
     1   6    -0.05   0.00  -0.07     0.00   0.00   0.00    -0.02   0.00  -0.03
     2   6     0.00   0.01  -0.01    -0.02   0.05  -0.03     0.02  -0.06   0.03
     3   6     0.00  -0.01  -0.01     0.02   0.05   0.03     0.02   0.06   0.03
     4   1     0.48   0.00   0.82     0.00   0.00   0.00     0.15   0.00   0.25
     5   1     0.06  -0.18   0.11     0.19  -0.58   0.34    -0.19   0.56  -0.33
     6   1     0.06   0.18   0.11    -0.19  -0.59  -0.34    -0.18  -0.55  -0.33
     7   9     0.00   0.00   0.00     0.00   0.00   0.00     0.00   0.00   0.00

 -------------------
 - Thermochemistry -
 -------------------
 Temperature   298.150 Kelvin.  Pressure   1.00000 Atm.
 Atom     1 has atomic number  6 and mass  12.00000
 Atom     2 has atomic number  6 and mass  12.00000
 Atom     3 has atomic number  6 and mass  12.00000
 Atom     4 has atomic number  1 and mass   1.00783
 Atom     5 has atomic number  1 and mass   1.00783
 Atom     6 has atomic number  1 and mass   1.00783
 Atom     7 has atomic number  9 and mass  18.99840
 Molecular mass:    58.02188 amu.
 Principal axes and moments of inertia in atomic units:
                           1         2         3
     Eigenvalues --    97.07106 246.32046 266.23237
           X            0.99842  -0.00002   0.05621
           Y            0.00001   1.00000   0.00034
           Z           -0.05621  -0.00034   0.99842
 This molecule is an asymmetric top.
 Rotational symmetry number  1.
 Rotational temperatures (Kelvin)      0.89227     0.35163     0.32533
 Rotational constants (GHZ):          18.59196     7.32680     6.77882
    1 imaginary frequencies ignored.
 Zero-point vibrational energy     121868.6 (Joules/Mol)
                                   29.12729 (Kcal/Mol)
 Warning -- explicit consideration of   2 degrees of freedom as
           vibrations may cause significant error
 Vibrational temperatures:    495.02   705.90  1032.31  1232.41  1247.69
          (Kelvin)           1374.27  1407.44  1472.42  1766.58  1877.45
                             2364.51  4733.95  4780.16  4824.70
 
 Zero-point correction=                           0.046417 (Hartree/Particle)
 Thermal correction to Energy=                    0.050226
 Thermal correction to Enthalpy=                  0.051170
 Thermal correction to Gibbs Free Energy=         0.020609
 Sum of electronic and zero-point Energies=           -215.732057
 Sum of electronic and thermal Energies=              -215.728248
 Sum of electronic and thermal Enthalpies=            -215.727304
 Sum of electronic and thermal Free Energies=         -215.757865
 
                     E (Thermal)             CV                S
                      KCal/Mol        Cal/Mol-Kelvin    Cal/Mol-Kelvin
 Total                   31.517             12.285             64.320
 Electronic               0.000              0.000              0.000
 Translational            0.889              2.981             38.095
 Rotational               0.889              2.981             23.369
 Vibrational             29.740              6.324              2.855
 Vibration     1          0.723              1.587              1.193
 Vibration     2          0.846              1.271              0.682
                       Q            Log10(Q)             Ln(Q)
 Total Bot       0.331484D-09         -9.479537        -21.827441
 Total V=0       0.742836D+12         11.870893         27.333741
 Vib (Bot)       0.668110D-21        -21.175152        -48.757589
 Vib (Bot)    1  0.538300D+00         -0.268976         -0.619339
 Vib (Bot)    2  0.337763D+00         -0.471388         -1.085412
 Vib (V=0)       0.149719D+01          0.175278          0.403593
 Vib (V=0)    1  0.123469D+01          0.091557          0.210819
 Vib (V=0)    2  0.110339D+01          0.042730          0.098390
 Electronic      0.100000D+01          0.000000          0.000000
 Translational   0.173717D+08          7.239843         16.670354
 Rotational      0.285609D+05          4.455772         10.259794
 ***** Axes restored to original set *****
 -------------------------------------------------------------------
 Center     Atomic                   Forces (Hartrees/Bohr)
 Number     Number              X              Y              Z
 -------------------------------------------------------------------
      1        6          -0.000140090    0.000053727    0.000082417
      2        6           0.000155100    0.000173275   -0.000026116
      3        6           0.000118861    0.000106274    0.000048870
      4        1           0.000033930   -0.000037553   -0.000035446
      5        1          -0.000089432   -0.000131026    0.000000836
      6        1          -0.000020983   -0.000033450    0.000006883
      7        9          -0.000057386   -0.000131247   -0.000077444
 -------------------------------------------------------------------
 Cartesian Forces:  Max     0.000173275 RMS     0.000089704
 FormGI is forming the generalized inverse of G from B-inverse, IUseBI=4.

 GradGradGradGradGradGradGradGradGradGradGradGradGradGradGradGradGradGrad
 Berny optimization.
 Internal  Forces:  Max     0.000116410 RMS     0.000041662
 Search for a saddle point.
 Step number   1 out of a maximum of    2
 All quantities printed in internal units (Hartrees-Bohrs-Radians)
 Swapping is turned off.
 Second derivative matrix not updated -- analytic derivatives used.
 ITU=  0
     Eigenvalues ---   -0.06485   0.00548   0.01029   0.01864   0.03301
     Eigenvalues ---    0.04079   0.04953   0.06100   0.08987   0.32078
     Eigenvalues ---    0.36755   0.38404   0.38806   0.39269   0.44781
 Eigenvectors required to have negative eigenvalues:
                          R8        R6        A6        A11       D5
   1                    0.46933  -0.46889   0.33805  -0.33801  -0.23238
                          A12       A7        D2        D4        A9
   1                    0.20681  -0.20663   0.17235   0.17188  -0.16438
 Angle between quadratic step and forces=  48.32 degrees.
 Linear search not attempted -- option 19 set.
 Iteration  1 RMS(Cart)=  0.00094763 RMS(Int)=  0.00000378
 Iteration  2 RMS(Cart)=  0.00000197 RMS(Int)=  0.00000254
 Iteration  3 RMS(Cart)=  0.00000000 RMS(Int)=  0.00000254
 Variable       Old X    -DE/DX   Delta X   Delta X   Delta X     New X
                                 (Linear)    (Quad)   (Total)
    R1        2.59788  -0.00004   0.00000  -0.00001  -0.00001   2.59787
    R2        2.59774   0.00007   0.00000   0.00013   0.00013   2.59787
    R3        2.04081   0.00001   0.00000   0.00000   0.00000   2.04081
    R4        2.59684  -0.00001   0.00000   0.00004   0.00005   2.59688
    R5        2.03629   0.00001   0.00000   0.00006   0.00006   2.03635
    R6        3.67777  -0.00003   0.00000  -0.00180  -0.00180   3.67596
    R7        2.03635   0.00000   0.00000   0.00000   0.00000   2.03635
    R8        3.67763  -0.00012   0.00000  -0.00167  -0.00167   3.67596
    A1        2.54278   0.00005   0.00000   0.00096   0.00096   2.54374
    A2        2.54449  -0.00002   0.00000  -0.00075  -0.00075   2.54374
    A3        2.63057  -0.00006   0.00000  -0.00165  -0.00165   2.62892
    A4        1.74029   0.00000   0.00000  -0.00009  -0.00009   1.74019
    A5        2.55178   0.00000   0.00000  -0.00020  -0.00021   2.55157
    A6        1.20992  -0.00004   0.00000  -0.00014  -0.00014   1.20978
    A7        1.80556   0.00007   0.00000   0.00308   0.00308   1.80864
    A8        2.62909   0.00001   0.00000  -0.00017  -0.00018   2.62891
    A9        1.74039   0.00000   0.00000  -0.00020  -0.00020   1.74019
   A10        2.55201   0.00000   0.00000  -0.00044  -0.00044   2.55157
   A11        1.21001   0.00002   0.00000  -0.00023  -0.00023   1.20978
   A12        1.80757   0.00001   0.00000   0.00106   0.00106   1.80863
    D1        0.92850   0.00004   0.00000   0.00594   0.00593   0.93443
    D2       -1.54943  -0.00002   0.00000   0.00036   0.00036  -1.54906
    D3       -0.93331  -0.00001   0.00000  -0.00110  -0.00110  -0.93441
    D4        1.54776   0.00005   0.00000   0.00130   0.00130   1.54907
    D5        0.00381  -0.00002   0.00000  -0.00382  -0.00382  -0.00001
    D6       -1.45364  -0.00007   0.00000  -0.00569  -0.00569  -1.45933
    D7        1.45745   0.00005   0.00000   0.00187   0.00187   1.45932
         Item               Value     Threshold  Converged?
 Maximum Force            0.000116     0.000450     YES
 RMS     Force            0.000042     0.000300     YES
 Maximum Displacement     0.002811     0.001800     NO 
 RMS     Displacement     0.000948     0.001200     YES
 Predicted change in Energy=-7.551868D-07
 GradGradGradGradGradGradGradGradGradGradGradGradGradGradGradGradGradGrad

 1\1\GINC-A26\Freq\RB3LYP\6-31G(d)\C3H3F1\HOLLAS\20-Oct-2015\0\\#N Geom
 =AllCheck Guess=TCheck SCRF=Check GenChk RB3LYP/6-31G(d) Freq\\finding
  transition state using qst2,geometry of reactant goes first\\0,1\C,-0
 .0300869309,-0.1762336591,-0.0790175044\C,0.1532946873,0.1419488684,1.
 2457623559\C,1.1754135397,-0.4332068828,0.5296182623\H,-0.5264716109,0
 .0909433382,-1.0001618423\H,-0.2433300152,0.358703303,2.2239422476\H,2
 .1098331949,-0.9680624002,0.5741667448\F,1.6545694545,1.3697794728,1.0
 83712355\\Version=ES64L-G09RevD.01\State=1-A\HF=-215.778474\RMSD=6.562
 e-10\RMSF=8.970e-05\ZeroPoint=0.0464173\Thermal=0.0502255\Dipole=-0.72
 73699,-1.1146884,-0.1422329\DipoleDeriv=-0.3487403,-0.2412907,-0.01587
 39,-0.2077672,-0.364086,-0.1662899,-0.042603,-0.2138472,-0.0905431,0.1
 503153,0.255553,-0.0438709,0.4558187,0.5110752,0.2749773,0.0686068,0.2
 427675,0.3026447,0.5838774,0.3326179,0.2276793,0.21689,0.4670057,0.119
 8566,0.047121,0.0312363,-0.083878,0.1514812,0.0498856,-0.0079734,0.109
 7808,0.2164377,0.08646,-0.0559494,0.0009891,0.0483685,0.1141166,-0.032
 0233,0.0360691,-0.0507912,0.0842687,-0.016749,0.0570145,-0.0026271,0.0
 787375,0.0694136,0.0146127,-0.0018206,0.0035175,0.0412354,-0.0159126,0
 .0016385,0.0132248,0.1657933,-0.7204638,-0.3793553,-0.1942095,-0.52744
 86,-0.9559366,-0.2823425,-0.0758284,-0.0717436,-0.4211229\Polar=32.884
 3342,1.8643872,25.2042632,4.2237081,5.6229624,30.3862371\PG=C01 [X(C3H
 3F1)]\NImag=1\\0.46714104,-0.10345820,0.14372630,0.35354534,-0.0402218
 0,0.81334012,-0.06820539,0.01273551,-0.02650659,0.34192410,-0.04080340
 ,-0.02810802,-0.05409900,-0.22264199,0.12654261,-0.06877503,-0.0561871
 9,-0.41420966,-0.25998444,0.19093628,0.89172688,-0.30430554,0.06857794
 ,-0.18908831,-0.19712860,0.20396215,0.20468742,0.84508249,0.11312084,-
 0.07130672,0.02261827,0.22874708,-0.01353061,-0.06039784,-0.43762036,0
 .20922259,-0.13961510,0.03758545,-0.13503964,0.20497814,-0.04322093,-0
 .12847877,-0.01845506,0.00682310,0.30604580,-0.10631467,0.04081040,-0.
 12117413,0.00018879,-0.00288338,-0.00004899,-0.00269075,0.00584931,-0.
 01502169,0.10403834,0.05174730,-0.05145304,0.07954142,-0.00142221,0.00
 309610,-0.01128957,-0.00622030,0.00175023,0.00161887,-0.04541511,0.040
 50089,-0.12988612,0.06395528,-0.28046927,-0.00885093,0.00833845,-0.005
 84104,0.00222865,-0.00288546,-0.00162541,0.13684453,-0.07027997,0.2848
 3010,0.00443328,0.00297897,-0.00785006,-0.08249434,0.02576316,0.111247
 17,-0.00028349,-0.00188790,0.01146789,0.00229677,-0.00133101,-0.001289
 51,0.07938525,0.00944270,0.00390845,-0.00576912,0.03243858,-0.04240156
 ,-0.05390131,-0.00283320,0.00125068,-0.01737165,-0.00126181,-0.0010308
 8,0.00050901,-0.02636226,0.04068154,0.00724443,-0.00095400,-0.00086866
 ,0.10948133,-0.06789323,-0.32557150,-0.00175160,-0.00039450,0.00081408
 ,0.00065300,-0.00022793,-0.00001095,-0.11764956,0.06798317,0.32445693,
 -0.00301470,0.00930575,0.00635547,-0.00810105,0.00351320,-0.00789907,-
 0.29323792,0.14791203,-0.01200739,-0.00002474,-0.00095911,0.00009584,0
 .00073719,-0.00099301,0.00022891,0.29958971,-0.00402715,0.01029770,-0.
 00144785,-0.00348056,0.00107303,-0.00292165,0.15657719,-0.11439082,0.0
 1208463,-0.00126837,-0.00049884,0.00065220,-0.00047231,-0.00036780,-0.
 00013359,-0.15372067,0.11433532,-0.00327303,0.00350093,0.00015249,0.01
 165535,-0.00863560,0.00881447,-0.02246010,0.00430935,-0.04285088,-0.00
 166021,0.00172539,0.00178288,0.00034169,0.00016827,0.00134211,0.014637
 35,-0.00453525,0.03058114,0.01026598,-0.03095037,-0.01528172,0.0138164
 8,0.03309026,0.02077295,-0.04743619,-0.05612100,-0.03134680,0.00250626
 ,0.00360044,0.00085753,-0.00407465,-0.01043099,0.00179349,0.00405151,0
 .00639187,0.00075895,0.02087061,-0.02602209,-0.00706468,-0.00062191,-0
 .04637641,-0.04667155,-0.00623872,0.01755658,-0.01299535,0.00248053,0.
 00416896,0.00763554,-0.00028951,0.00131136,-0.00204042,0.00162008,-0.0
 0505819,-0.01044859,0.00346692,0.05441980,0.07158506,-0.01924049,-0.00
 767868,0.01709462,-0.03077285,-0.02542597,-0.02644037,0.02483900,0.029
 92709,0.00113482,0.00040750,-0.00108822,0.00133368,0.00373238,0.008381
 64,-0.00016202,-0.00141112,-0.00369849,0.00017780,0.02244558,-0.000417
 38,0.00686147\\0.00014009,-0.00005373,-0.00008242,-0.00015510,-0.00017
 328,0.00002612,-0.00011886,-0.00010627,-0.00004887,-0.00003393,0.00003
 755,0.00003545,0.00008943,0.00013103,-0.00000084,0.00002098,0.00003345
 ,-0.00000688,0.00005739,0.00013125,0.00007744\\\@


 OLD HORSE! OLD HORSE! WHAT BROUGHT YOU HERE?
 FROM SACARAP' TO PORTLAND PIER
 I'VE CARTED STONE THIS MANY A YEAR;
 TILL, KILLED BY BLOWS AND SORE ABUSE,
 THEY SALTED ME DOWN FOR SAILORS' USE.
 THE SAILORS THEY DO ME DESPISE;
 THEY TURN ME OVER AND DAMN MY EYES;
 CUT OFF MY MEAT, AND SCRAPE MY BONES,
 AND PITCH ME OVER TO DAVY JONES.

    SAILORS' COMPLAINT ABOUT THE BEEF
    SERVED ON SHIPBOARD, CIRCA 1835.
 Job cpu time:       0 days  0 hours  0 minutes 22.1 seconds.
 File lengths (MBytes):  RWF=      7 Int=      0 D2E=      0 Chk=      1 Scr=      1
 Normal termination of Gaussian 09 at Tue Oct 20 02:00:12 2015.
