   13
Geometry Step: 0
    N     13.28317833     15.18556201     14.59989487      5.19219966
    C     13.82966176     16.34620926     14.96436488      3.33393381
    O     13.18020655     17.39610442     14.95955345      6.62037340
    N     15.20632680     16.34427604     15.20478769      5.53327016
    C     15.93452989     15.19156623     15.18080787      3.61108647
    N     17.19101480     15.16462212     15.48400977      5.30601281
    C     15.25256503     13.88056618     14.98172030      4.29512586
    C     13.98946010     13.93624846     14.52018207      3.94361791
    H     17.61855276     16.10789942     15.49465218      0.77983199
    H     17.80095347     14.37006126     15.59431100      0.78657696
    H     15.84064792     13.07302966     14.86374705      0.89977345
    H     13.55090559     13.13610179     14.06684688      0.90864142
    H     12.25589052     15.16963360     14.46567878      0.78955610
   13
Geometry Step: 1
    N     13.25455923     15.09525000     14.57939006      5.20590495
    C     13.86807239     16.38636915     14.97172018      3.36154972
    O     13.16827119     17.40299094     14.96286585      6.55645240
    N     15.24234602     16.33127796     15.20632102      5.46183843
    C     15.82869444     15.18787692     15.18015643      3.59323907
    N     17.26956672     15.19819581     15.49722575      5.45161750
    C     15.25065809     13.92806316     14.97941310      4.31329174
    C     13.97784518     13.99626549     14.53585200      3.88247891
    H     17.62040923     16.09524932     15.49857607      0.77212102
    H     17.79643813     14.36633713     15.59102951      0.78524737
    H     15.86243797     13.03577099     14.85921098      0.90257212
    H     13.52849791     13.10899425     14.05557983      0.94247475
    H     12.26609701     15.16923932     14.46321599      0.77121200
   13
Geometry Step: 2
    N     13.26518474     15.12878045     14.58700295      5.20400962
    C     13.85381154     16.37145885     14.96898935      3.35028381
    O     13.17270247     17.40043416     14.96163605      6.57918644
    N     15.22897304     16.33610380     15.20575173      5.48635043
    C     15.86798833     15.18924666     15.18039829      3.59825812
    N     17.24040248     15.18573079     15.49231901      5.40073776
    C     15.25136609     13.91042879     14.98026970      4.30558292
    C     13.98215749     13.97398276     14.53003417      3.90616978
    H     17.61971998     16.09994597     15.49711924      0.77491896
    H     17.79811456     14.36771980     15.59224784      0.78572847
    H     15.85434790     13.04960415     14.86089510      0.90216174
    H     13.53681729     13.11905856     14.05976298      0.92873372
    H     12.26230761     15.16938571     14.46413036      0.77787823
   13
Geometry Step: 3
    N     13.25046881     15.09851911     14.58459317      5.18248923
    C     13.88781304     16.39057063     14.96117261      3.35747560
    O     13.16286043     17.39632838     14.96835804      6.58353825
    N     15.23800444     16.36496466     15.20526146      5.51874030
    C     15.88727527     15.16007734     15.22347314      3.59119399
    N     17.21259269     15.21726046     15.48256832      5.34973278
    C     15.26165060     13.94803959     14.96889065      4.33146294
    C     13.94360978     13.99482405     14.52871680      3.88207731
    H     17.64580325     16.11198133     15.50503870      0.77312778
    H     17.80171025     14.35396027     15.58736432      0.79900281
    H     15.87285020     13.01248014     14.85655011      0.91882402
    H     13.50841515     13.09283007     14.05577176      0.93751915
    H     12.26083960     15.16004442     14.45279770      0.77481582
   13
Geometry Step: 4
    N     13.25845298     15.11493749     14.58590060      5.19486905
    C     13.86936542     16.38020147     14.96541361      3.35339798
    O     13.16820026     17.39855598     14.96471100      6.58076926
    N     15.23310443     16.34930611     15.20552746      5.50199584
    C     15.87681108     15.17590324     15.20010275      3.59436549
    N     17.22768098     15.20015394     15.48785859      5.37732381
    C     15.25607070     13.92763374     14.97506439      4.31725950
    C     13.96452396     13.98351655     14.52943155      3.89562697
    H     17.63165169     16.10545151     15.50074197      0.77418496
    H     17.79975940     14.36142555     15.59001389      0.79142300
    H     15.86281172     13.03262188     14.85890750      0.90968205
    H     13.52382482     13.10706041     14.05793721      0.93253247
    H     12.26163607     15.16511257     14.45894627      0.77656962
   13
Geometry Step: 5
    N     13.25306408     15.13558525     14.59238552      5.21040873
    C     13.87715034     16.38349638     14.95857736      3.34227507
    O     13.16642449     17.39095196     14.96774206      6.58808803
    N     15.23724390     16.35613504     15.20521238      5.51143041
    C     15.89733210     15.18714185     15.22393761      3.59485872
    N     17.21576397     15.19583952     15.48415462      5.34737116
    C     15.25563645     13.91911417     14.96232782      4.31349626
    C     13.96009406     13.96420906     14.52516605      3.90857292
    H     17.64711230     16.11733790     15.50526925      0.77693218
    H     17.79465179     14.36581341     15.58600107      0.79033956
    H     15.86292063     13.02703273     14.85825438      0.91118384
    H     13.51172657     13.10029690     14.06088274      0.92615906
    H     12.25477285     15.15892628     14.45064592      0.77888406
   13
Geometry Step: 6
    N     13.25445733     15.13024699     14.59070891      5.20648766
    C     13.87513763     16.38264452     14.96034480      3.34508774
    O     13.16688359     17.39291790     14.96695841      6.58618675
    N     15.23617368     16.35436949     15.20529384      5.50885247
    C     15.89202661     15.18423623     15.21777536      3.59465870
    N     17.21884498     15.19695496     15.48511224      5.35522847
    C     15.25574872     13.92131681     14.96562072      4.31449486
    C     13.96123936     13.96920080     14.52626885      3.90528431
    H     17.64311512     16.11426480     15.50409877      0.77620124
    H     17.79597231     14.36467897     15.58703854      0.79062024
    H     15.86289247     13.02847775     14.85842324      0.91080061
    H     13.51485444     13.10204554     14.06012120      0.92776605
    H     12.25654726     15.16052568     14.45279189      0.77833091
   13
Geometry Step: 7
    N     13.25949902     15.13721672     14.59660866      5.20293951
    C     13.87716435     16.38091448     14.95279665      3.34576675
    O     13.16531095     17.38917618     14.97020399      6.58429468
    N     15.24702545     16.35773438     15.20671372      5.49632049
    C     15.88365574     15.19297697     15.23270157      3.59809349
    N     17.23402296     15.20117706     15.48681232      5.37180945
    C     15.25598688     13.91531750     14.95260115      4.31026343
    C     13.95747748     13.96410269     14.52532157      3.91184569
    H     17.65498286     16.11769900     15.50924153      0.77558532
    H     17.78824557     14.37072313     15.58233927      0.78894025
    H     15.86114360     13.02489643     14.85787942      0.90714913
    H     13.50093797     13.09431924     14.06336544      0.92656173
    H     12.24844068     15.15562666     14.44397149      0.78043008
   13
Geometry Step: 8
    N     13.26765666     15.14849398     14.60615465      5.19726773
    C     13.88044365     16.37811521     14.94058349      3.34729671
    O     13.16276637     17.38312196     14.97545544      6.58163422
    N     15.26458399     16.36317888     15.20901113      5.47494630
    C     15.87011139     15.20711979     15.25685267      3.60493712
    N     17.25858144     15.20800857     15.48956310      5.39784445
    C     15.25637222     13.90561040     14.93153505      4.30328872
    C     13.95139062     13.95585376     14.52378885      3.92204944
    H     17.67418525     16.12325565     15.51756269      0.77457528
    H     17.77574346     14.38050279     15.57473570      0.78635160
    H     15.85831387     13.01910173     14.85699949      0.90151766
    H     13.47842065     13.08181783     14.06861472      0.92462741
    H     12.23532394     15.14769989     14.42969979      0.78366335
   13
Geometry Step: 9
    N     13.25954914     15.13728601     14.59666731      5.20290267
    C     13.87718450     16.38089728     14.95272162      3.34577417
    O     13.16529532     17.38913898     14.97023625      6.58427788
    N     15.24713333     16.35776783     15.20672783      5.49619367
    C     15.88357253     15.19306387     15.23284995      3.59813101
    N     17.23417385     15.20121904     15.48682922      5.37197029
    C     15.25598924     13.91525786     14.95247172      4.31022302
    C     13.95744008     13.96405201     14.52531216      3.91191332
    H     17.65510084     16.11773314     15.50929266      0.77557882
    H     17.78816876     14.37078322     15.58229256      0.78892307
    H     15.86112621     13.02486083     14.85787401      0.90711334
    H     13.50079963     13.09424243     14.06339769      0.92655008
    H     12.24836009     15.15557796     14.44388380      0.78044866
   13
Geometry Step: 10
    N     13.25981845     15.12991673     14.59951309      5.19850706
    C     13.88002680     16.37994172     14.94637293      3.34918482
    O     13.16501899     17.38653139     14.97394144      6.58378690
    N     15.25109909     16.36846145     15.20880143      5.49787797
    C     15.88443379     15.18632196     15.24585055      3.60276882
    N     17.23849147     15.21803006     15.48776180      5.36798883
    C     15.25548198     13.92001470     14.93845042      4.30817281
    C     13.95503983     13.96634791     14.52604959      3.90673974
    H     17.67088973     16.11874250     15.51673257      0.77285370
    H     17.78423599     14.37079352     15.57714650      0.79263110
    H     15.85938888     13.01915421     14.85680000      0.90878404
    H     13.48150834     13.08625922     14.06907153      0.93017432
    H     12.24846018     15.15136507     14.43406493      0.78052989
   13
Geometry Step: 11
    N     13.25979463     15.13056859     14.59926137      5.19890216
    C     13.87977538     16.38002625     14.94693451      3.34887792
    O     13.16504343     17.38676205     14.97361370      6.58383850
    N     15.25074830     16.36751554     15.20861801      5.49774690
    C     15.88435761     15.18691831     15.24470058      3.60235188
    N     17.23810955     15.21654303     15.48767930      5.36833222
    C     15.25552685     13.91959393     14.93969068      4.30834472
    C     13.95525214     13.96614483     14.52598436      3.90720096
    H     17.66949312     16.11865321     15.51607447      0.77309356
    H     17.78458386     14.37079261     15.57760170      0.79230087
    H     15.85954255     13.01965899     14.85689500      0.90863500
    H     13.48321476     13.08696538     14.06856965      0.92985123
    H     12.24845133     15.15173772     14.43493346      0.78052409
   13
Geometry Step: 12
    N     13.25299951     15.12346677     14.60012008      5.20324642
    C     13.88457084     16.38191631     14.94470152      3.34788794
    O     13.16518050     17.38351682     14.97605758      6.58168124
    N     15.25045773     16.36692314     15.21070877      5.49979597
    C     15.88893328     15.19148078     15.25175721      3.59836631
    N     17.23406109     15.22110368     15.48913440      5.36130066
    C     15.26217441     13.92548281     14.92886038      4.31451356
    C     13.95015275     13.96191165     14.52307577      3.90642293
    H     17.68805939     16.12468210     15.52463334      0.77480303
    H     17.78135725     14.37311849     15.57218526      0.79339594
    H     15.85578988     13.01592229     14.85558884      0.90952229
    H     13.46501497     13.08434628     14.07845784      0.92962226
    H     12.25514192     15.14800932     14.42527580      0.77944147
   13
Geometry Step: 13
    N     13.24200476     15.11197580     14.60150952      5.21019895
    C     13.89233005     16.38497450     14.94108846      3.34638217
    O     13.16540228     17.37826592     14.98001186      6.57813234
    N     15.24998758     16.36596462     15.21409169      5.50291563
    C     15.89633688     15.19886300     15.26317507      3.59201826
    N     17.22751055     15.22848297     15.49148878      5.34978687
    C     15.27293039     13.93501122     14.91133659      4.32496372
    C     13.94190177     13.95506223     14.51836958      3.90494786
    H     17.71810025     16.13443703     15.53848188      0.77753270
    H     17.77613647     14.37688184     15.56342128      0.79503856
    H     15.84971793     13.00987617     14.85347542      0.91098189
    H     13.43556709     13.08010849     14.09445727      0.92928960
    H     12.26596752     15.14197664     14.40964937      0.77781144
   13
Geometry Step: 14
    N     13.25239515     15.12283514     14.60019646      5.20363257
    C     13.88499734     16.38208441     14.94450292      3.34780376
    O     13.16519269     17.38322819     14.97627493      6.58148535
    N     15.25043189     16.36687045     15.21089472      5.49997408
    C     15.88934024     15.19188656     15.25238482      3.59801199
    N     17.23370103     15.22150930     15.48926381      5.36067387
    C     15.26276564     13.92600656     14.92789715      4.31507384
    C     13.94969922     13.96153516     14.52281709      3.90634492
    H     17.68971066     16.12521830     15.52539456      0.77495283
    H     17.78107027     14.37332535     15.57170353      0.79349170
    H     15.85545612     13.01558995     14.85547267      0.90960373
    H     13.46339629     13.08411334     14.07933729      0.92960178
    H     12.25573697     15.14767772     14.42441685      0.77934957
   13
Geometry Step: 15
    N     13.25403530     15.11932976     14.60234815      5.20796380
    C     13.88647562     16.38037802     14.94554900      3.34626131
    O     13.16582202     17.38037690     14.97735030      6.58090563
    N     15.24567019     16.36255868     15.21446943      5.48997637
    C     15.88589096     15.20117959     15.24807466      3.59686894
    N     17.24323200     15.22452147     15.49571125      5.37255707
    C     15.26534547     13.93035582     14.91570836      4.31223823
    C     13.95204717     13.95460986     14.52080767      3.90793360
    H     17.70717307     16.12678828     15.53629038      0.77564969
    H     17.77643959     14.37903933     15.56470288      0.79194931
    H     15.84972234     13.01462612     14.85376233      0.90941849
    H     13.44391855     13.08422215     14.09459385      0.92843756
    H     12.25812124     15.14389446     14.41118851      0.77984001
   13
Geometry Step: 16
    N     13.25393738     15.11953904     14.60221969      5.20770119
    C     13.88638736     16.38047989     14.94548655      3.34635297
    O     13.16578445     17.38054712     14.97728610      6.58094232
    N     15.24595447     16.36281610     15.21425601      5.49057353
    C     15.88609688     15.20062478     15.24833199      3.59693514
    N     17.24266298     15.22434164     15.49532633      5.37185517
    C     15.26519145     13.93009617     14.91643606      4.31240580
    C     13.95190699     13.95502331     14.52092763      3.90783969
    H     17.70613053     16.12669455     15.53563988      0.77560879
    H     17.77671605     14.37869820     15.56512084      0.79203919
    H     15.85006466     13.01468367     14.85386444      0.90942926
    H     13.44508140     13.08421565     14.09368301      0.92850699
    H     12.25797890     15.14412032     14.41197827      0.77980995
   13
Geometry Step: 17
    N     13.25962199     15.11728722     14.60405626      5.20358749
    C     13.88118392     16.37528076     14.94720778      3.34658460
    O     13.16658250     17.37872256     14.97748463      6.58310808
    N     15.24026872     16.36528911     15.21910821      5.49188352
    C     15.89201239     15.20200994     15.23975930      3.59916579
    N     17.24512560     15.23332237     15.50166664      5.36900695
    C     15.26711796     13.93215101     14.90530464      4.31048518
    C     13.95460190     13.95265148     14.52032356      3.90783387
    H     17.72048001     16.12414421     15.54668587      0.77458839
    H     17.77554556     14.38033842     15.55830979      0.79392490
    H     15.84475377     13.01555151     14.85214283      0.90962955
    H     13.42768020     13.08438095     14.11000984      0.92856504
    H     12.25891900     15.14075090     14.39849744      0.78163665
   13
Geometry Step: 18
    N     13.26881989     15.11364371     14.60702788      5.19701940
    C     13.87276456     16.36686839     14.94999280      3.34702480
    O     13.16787377     17.37577036     14.97780585      6.58643259
    N     15.23106897     16.36929052     15.22695925      5.49367068
    C     15.90158388     15.20425118     15.22588839      3.60298729
    N     17.24911019     15.24785350     15.51192547      5.36458754
    C     15.27023512     13.93547582     14.88729364      4.30701979
    C     13.95896235     13.94881377     14.51934615      3.90791487
    H     17.74369797     16.12001766     15.56455867      0.77286952
    H     17.77365167     14.38299236     15.54728927      0.79707246
    H     15.83616057     13.01695570     14.84935719      0.90994595
    H     13.39952445     13.08464841     14.13642721      0.92874313
    H     12.26044012     15.13529906     14.37668500      0.78471197
   13
Geometry Step: 19
    N     13.26164799     15.11648468     14.60471081      5.20213132
    C     13.87932941     16.37342779     14.94782123      3.34667517
    O     13.16686692     17.37807229     14.97755538      6.58385886
    N     15.23824231     16.36617049     15.22083754      5.49231279
    C     15.89412068     15.20250361     15.23670399      3.59998730
    N     17.24600327     15.23652310     15.50392632      5.36801636
    C     15.26780457     13.93288336     14.90133741      4.30975713
    C     13.95556236     13.95180616     14.52010827      3.90783785
    H     17.72559417     16.12323526     15.55062267      0.77421627
    H     17.77512840     14.38092299     15.55588233      0.79460783
    H     15.84286097     13.01586080     14.85152924      0.90970078
    H     13.42147840     13.08443986     14.11582872      0.92859704
    H     12.25925405     15.13955004     14.39369287      0.78230131
   13
Geometry Step: 20
    N     13.25669030     15.11522666     14.60230979      5.19225561
    C     13.87110618     16.36403912     14.95175588      3.35186634
    O     13.16244648     17.37834960     14.97633568      6.58486933
    N     15.23931619     16.36457768     15.22918649      5.49406639
    C     15.90320601     15.20978949     15.22110676      3.59705855
    N     17.24039038     15.24089373     15.51187240      5.36170532
    C     15.27978544     13.93409103     14.88924155      4.31751679
    C     13.95194066     13.95526213     14.51999947      3.91109335
    H     17.74242573     16.12085249     15.56653440      0.77581436
    H     17.77659900     14.38244953     15.54580620      0.79706126
    H     15.83863013     13.01642811     14.84862765      0.90643902
    H     13.40249534     13.08488184     14.14102265      0.92904041
    H     12.26886168     15.13503903     14.37675785      0.78121326
   13
Geometry Step: 21
    N     13.25836300     15.11565111     14.60311988      5.19557047
    C     13.87388065     16.36720680     14.95042836      3.35010189
    O     13.16393791     17.37825604     14.97674720      6.58455433
    N     15.23895387     16.36511509     15.22636960      5.49350067
    C     15.90014067     15.20733127     15.22636918      3.59800746
    N     17.24228414     15.23941911     15.50919144      5.36383530
    C     15.27574316     13.93368357     14.89332263      4.31496260
    C     13.95316260     13.95409611     14.52003618      3.90997720
    H     17.73674686     16.12165642     15.56116587      0.77528245
    H     17.77610283     14.38193449     15.54920583      0.79622436
    H     15.84005759     13.01623670     14.84960663      0.90752879
    H     13.40890012     13.08473272     14.13252236      0.92887800
    H     12.26562012     15.13656102     14.38247163      0.78157648
   13
Geometry Step: 22
    N     13.25189854     15.11761802     14.59926791      5.20032565
    C     13.87163814     16.36757102     14.95475989      3.34920714
    O     13.15961502     17.37447456     14.97499270      6.58267221
    N     15.23676313     16.36320300     15.23077638      5.49059264
    C     15.90024017     15.21109281     15.21422901      3.59713776
    N     17.24592298     15.23523383     15.51553675      5.36953358
    C     15.27694579     13.93905675     14.88426419      4.31063425
    C     13.95581781     13.95790346     14.52336868      3.90952766
    H     17.74278334     16.11877280     15.57224040      0.77625731
    H     17.77716480     14.38483059     15.54122430      0.79504257
    H     15.84238494     13.01279618     14.84694850      0.90878466
    H     13.40094117     13.08523993     14.15173705      0.93055810
    H     12.27177769     15.13408750     14.37121102      0.77972648
   13
Geometry Step: 23
    N     13.25336705     15.11717120     14.60014295      5.19923692
    C     13.87214756     16.36748828     14.95377591      3.34941046
    O     13.16059703     17.37533359     14.97539126      6.58310411
    N     15.23726079     16.36363737     15.22977531      5.49126180
    C     15.90021757     15.21023831     15.21698686      3.59731846
    N     17.24509636     15.23618458     15.51409530      5.36824791
    C     15.27667259     13.93783614     14.88632196      4.31163363
    C     13.95521463     13.95703855     14.52261165      3.90962705
    H     17.74141205     16.11942786     15.56972464      0.77603729
    H     17.77692356     14.38417269     15.54303744      0.79530421
    H     15.84185624     13.01357775     14.84755234      0.90850071
    H     13.40274918     13.08512471     14.14737211      0.93017574
    H     12.27037890     15.13464940     14.37376906      0.78014171
   13
Geometry Step: 24
    N     13.25672331     15.11878625     14.59793094      5.19607317
    C     13.87125077     16.36972629     14.95621955      3.34784687
    O     13.15594697     17.37252859     14.97427284      6.58396063
    N     15.23301311     16.36443558     15.23233268      5.49335077
    C     15.90302239     15.21019696     15.20983721      3.59763664
    N     17.24592907     15.23506091     15.51820660      5.36733480
    C     15.27755119     13.94100666     14.87869625      4.31262753
    C     13.95358866     13.96071819     14.52547181      3.90841131
    H     17.74215425     16.11489098     15.57859718      0.77600190
    H     17.78010228     14.38340469     15.53584407      0.79551118
    H     15.84504056     13.01165099     14.84509142      0.90973862
    H     13.40069648     13.08608850     14.16424792      0.93023587
    H     12.26887447     15.13338585     14.36380831      0.78127070
   13
Geometry Step: 25
    N     13.26215386     15.12139945     14.59435183      5.19093057
    C     13.86979973     16.37334746     14.96017344      3.34535315
    O     13.14842302     17.36799002     14.97246319      6.58532201
    N     15.22614021     16.36572712     15.23647059      5.49664516
    C     15.90756069     15.21013004     15.19826884      3.59826633
    N     17.24727643     15.23324277     15.52485882      5.36592347
    C     15.27897278     13.94613666     14.86635760      4.31409591
    C     13.95095779     13.96667197     14.53009966      3.90641768
    H     17.74335516     16.10755015     15.59295325      0.77591503
    H     17.78524556     14.38216204     15.52420495      0.79590089
    H     15.85019289     13.00853343     14.84110957      0.91175552
    H     13.39737514     13.08764796     14.19155355      0.93034385
    H     12.26644025     15.13134137     14.34769149      0.78313045
   13
Geometry Step: 26
    N     13.25774055     15.11927575     14.59726050      5.19511344
    C     13.87097896     16.37040460     14.95696018      3.34737522
    O     13.15453760     17.37167844     14.97393386      6.58421782
    N     15.23172569     16.36467751     15.23310779      5.49397651
    C     15.90387250     15.21018442     15.20767024      3.59774457
    N     17.24618146     15.23472034     15.51945269      5.36706640
    C     15.27781748     13.94196760     14.87638500      4.31291457
    C     13.95309585     13.96183344     14.52633869      3.90803666
    H     17.74237921     16.11351591     15.58128633      0.77598826
    H     17.78106571     14.38317192     15.53366385      0.79557894
    H     15.84600569     13.01106702     14.84434554      0.91011561
    H     13.40007433     13.08638062     14.16936277      0.93025580
    H     12.26841850     15.13300288     14.36078934      0.78161620
   13
Geometry Step: 27
    N     13.25765041     15.12426237     14.59315761      5.19174183
    C     13.87083355     16.37090971     14.95706922      3.34861046
    O     13.14491810     17.37306636     14.97352177      6.58738258
    N     15.23260759     16.36384063     15.23660475      5.49302867
    C     15.90600598     15.21308208     15.20273961      3.59671585
    N     17.24269446     15.23251921     15.52299824      5.36454716
    C     15.28421474     13.94051191     14.86639501      4.31585489
    C     13.95112741     13.96303881     14.52998161      3.91094229
    H     17.74089028     16.10828963     15.59331586      0.77651691
    H     17.78692792     14.37977197     15.52296456      0.79643764
    H     15.84849084     13.01326178     14.84072659      0.90783847
    H     13.40005356     13.08691985     14.19237352      0.92881451
    H     12.26747868     15.13240612     14.34870841      0.78156875
   13
Geometry Step: 28
    N     13.25766078     15.12368870     14.59362962      5.19212713
    C     13.87085028     16.37085160     14.95705667      3.34846593
    O     13.14602474     17.37290669     14.97356918      6.58702554
    N     15.23250613     16.36393690     15.23620245      5.49313771
    C     15.90576054     15.21274873     15.20330684      3.59683374
    N     17.24309561     15.23277243     15.52259035      5.36483525
    C     15.28347878     13.94067938     14.86754428      4.31552029
    C     13.95135387     13.96290014     14.52956252      3.91060930
    H     17.74106157     16.10889088     15.59193196      0.77645719
    H     17.78625352     14.38016311     15.52419543      0.79633673
    H     15.84820495     13.01300929     14.84114292      0.90809811
    H     13.40005595     13.08685782     14.18972631      0.92897881
    H     12.26758680     15.13247477     14.35009823      0.78157427
   13
Geometry Step: 29
    N     13.25426550     15.12661782     14.58848707      5.19850942
    C     13.86686379     16.37532073     14.95418838      3.34786870
    O     13.14092051     17.37237924     14.97442643      6.58266969
    N     15.23485738     16.36514760     15.23909984      5.49466149
    C     15.90445973     15.21219989     15.20186025      3.59701193
    N     17.24267031     15.22679919     15.52499414      5.36620724
    C     15.28588908     13.94085254     14.85838038      4.31150704
    C     13.95644815     13.96414113     14.53461569      3.91015279
    H     17.73799332     16.10587124     15.60308810      0.77697312
    H     17.78982910     14.37860723     15.51335939      0.79602518
    H     15.85041315     13.01629041     14.83751327      0.90730642
    H     13.39987401     13.08412331     14.20944077      0.93050843
    H     12.26940950     15.13353010     14.34110308      0.78059854
   13
Geometry Step: 30
    N     13.25445460     15.12645468     14.58877348      5.19815340
    C     13.86708582     16.37507182     14.95434813      3.34789906
    O     13.14120479     17.37240862     14.97437868      6.58291348
    N     15.23472642     16.36508017     15.23893847      5.49457952
    C     15.90453218     15.21223046     15.20194082      3.59700217
    N     17.24269400     15.22713187     15.52486026      5.36613010
    C     15.28575484     13.94084290     14.85889076      4.31172785
    C     13.95616442     13.96407201     14.53433425      3.91018036
    H     17.73816420     16.10603942     15.60246676      0.77694485
    H     17.78962995     14.37869388     15.51396290      0.79604228
    H     15.85029016     13.01610767     14.83771543      0.90735069
    H     13.39988414     13.08427561     14.20834277      0.93042299
    H     12.26930799     15.13347132     14.34160407      0.78065323
   13
Geometry Step: 31
    N     13.25837083     15.12402824     14.58423410      5.19404679
    C     13.86555835     16.37799598     14.94946374      3.34901530
    O     13.13882529     17.37435026     14.97654841      6.58203525
    N     15.23225746     16.36760528     15.24016870      5.49673563
    C     15.90331207     15.20949886     15.20369761      3.59740200
    N     17.24368757     15.22155717     15.52636075      5.36717003
    C     15.28806844     13.94577222     14.85252431      4.31300539
    C     13.95575371     13.96734036     14.53755006      3.90748127
    H     17.73279097     16.10313516     15.61351413      0.77705171
    H     17.79160149     14.37731206     15.50210353      0.79528589
    H     15.85316157     13.01871096     14.83381979      0.90804876
    H     13.40027973     13.07884489     14.22624948      0.93144982
    H     12.27022604     15.13572899     14.33432218      0.78127214
   13
Geometry Step: 32
    N     13.25770288     15.12444209     14.58500833      5.19475093